<VTKFile type='UnstructuredGrid' version='0.1' byte_order='LittleEndian'>
<!-- complex_magnitude_surface -->
  <UnstructuredGrid>
    <Piece NumberOfPoints='13952' NumberOfCells='27500'>
      <PointData Scalars='Im(f(z)) Im(z) Re(f(z)) Re(z) abs(f(z)) abs(z) arg(f(z)) arg(z)' Vectors='COLORS'>
        <DataArray Name='Im(f(z))' type='Float64' format='ascii' NumberOfComponents='1'>
          0.575508628 0.5194063927 0.5055515353 0.6427859834 0.6448952096 0.6449440122 0.5707326807 0.6799141551 0.7127710402 0.7210747302 0.7552841326 0.78609737 0.7941574922 0.8021562143 0.7611821153 0.6840664257 0.7246943373 0.7278649207 0.6853828828 0.7433368508 0.7668184229 0.7849840095 0.806117084 0.8100427465 0.7883229512 0.7477466993 0.769517009 0.7721229973 0.7497936406 0.7790407898 0.7915975609 0.8009547947 0.8139251306 0.7819828091 0.7947983693 0.8044989623 0.8177553594 0.5327761227 0.4949696382 0.5632452303 0.604431507 0.644020435 0.6423564901 0.6014074557 0.522053723 0.4814479638 0.5583198248 0.5525105901 0.5798766897 0.5975521042 0.6200345163 0.6398608544 0.5750118482 0.5927793265 0.6163683419 0.638270323 0.6364338072 0.664908006 0.6860878879 0.7072760533 0.7292561159 0.7305027536 0.7080144419 0.6644109551 0.6861831226 0.6860906293 0.6971652174 0.7085854248 0.7196239352 0.7315924886 0.6974025217 0.7089761956 0.7203627626 0.7325121457 0.7396199043 0.7517210899 0.7620312105 0.7746257239 0.74120676 0.7535174185 0.7641812657 0.7770136575 0.7848361291 0.7979150585 0.8079748692 0.8215236813 0.7875897948 0.8009363952 0.8113719932 0.8252193959 0.7426493178 0.7551701375 0.7662018548 0.7792743394 0.743934711 0.7566658451 0.768080011 0.7813943212 0.8038501621 0.8323449755 0.6631415744 0.6857973928 0.6852896883 0.6621859493 0.6974489855 0.709173169 0.7209192876 0.7332476771 0.6972909209 0.7091619493 0.7212792516 0.73378412 0.6502582473 0.6609984293 0.6731865478 0.68455306 0.6487420425 0.6595647667 0.6720974544 0.6835723026 0.6969138672 0.7089272995 0.7214275151 0.7341055547 0.6963025662 0.708453112 0.7213480224 0.7341950629 0.7579901742 0.7851530478 0.8093007462 0.8390243605 0.7600620715 0.7881599175 0.8141464755 0.8451289648 0.8091488414 0.8230679978 0.833226024 0.8470078631 0.8595667906 0.8657011226 0.8719142902 0.8526574924 0.818258396 0.8383483625 0.8434941159 0.822815878 0.8456588386 0.8583589143 0.8653026249 0.8782050148 0.8510875908 0.864109068 0.8713290637 0.8845715984 0.8717394227 0.8774525541 0.8841289567 0.8897282945 0.8949882432 0.9022050678 0.8781905176 0.8909098991 0.896734172 0.9095531058 0.9073229964 0.9120894253 0.9198399218 0.9244354722 0.9286699216 0.9369418461 0.9148799003 0.9277489476 0.9325341644 0.9453998754 0.8847329219 0.8977955667 0.9038583451 0.9170341599 0.8913658853 0.9047858091 0.911101652 0.9246497996 0.9358200567 0.9628959276 0.8146081462 0.8273675895 0.8355849625 0.8486584629 0.818850409 0.831907023 0.8404413229 0.8538359343 0.8565501345 0.8699043515 0.8774161946 0.891011868 0.862041926 0.8757405598 0.8835608258 0.8975231141 0.8230648716 0.8364269334 0.8452945234 0.8590203449 0.8272434518 0.8409192679 0.8501374272 0.8642047196 0.8816128154 0.9107445975 0.9118800878 0.9402896685 0.9524621477 0.9812015545 0.9263763057 0.9564787019 0.9697916879 1.000359704 0.9409763298 0.9446430071 0.9534183142 0.9568561647 0.9599227593 0.9691773998 0.9496017118 0.9624071275 0.9659869974 0.9786722978 0.9841293742 0.9880714988 1.008595076 0.971616792 0.998420454 1.004345877 1.030330972 1.034456652 1.032714412 1.080136683 1.019245894 1.077906891 1.08267597 1.134296415 0.8453750907 0.8745410214 0.8934421311 0.9242008395 0.8541365439 0.8847699837 0.9053367297 0.9378427746 0.9732154859 1.041394174 0.8947981143 0.965395956 1.008272979 1.063338912 1.086266926 1.026525971 1.064470957 1.131864528 1.08905472 1.137704703 1.196845993 1.168252081 1.077581203 1.115082621 1.124927032 1.161633645 1.102216142 1.142655513 1.153782146 1.193508391 1.168914301 1.166383267 1.201130308 1.200319509 1.231924723 1.198956626 1.23661165 1.216161638 1.235789348 1.269974769 1.254618729 0.5079778364 0.4645813779 0.5457408869 0.5379309516 0.4995240772 0.5692029395 0.5869972303 0.611725646 0.6343375058 0.631967085 0.6090060385 0.5623637211 0.5836974758 0.5801085052 0.5963412941 0.6060029742 0.6189842698 0.6293076854 0.5930392521 0.6027024851 0.6159982011 0.6263439342 0.476928545 0.4547653286 0.490039667 0.5137945926 0.5289985841 0.4667403779 0.4439602083 0.4794594089 0.5039888818 0.5240853533 0.5188600571 0.5544040655 0.5762174034 0.5720110046 0.5499750309 0.5894369813 0.5990902237 0.6127035648 0.6230599617 0.5855207085 0.5951514897 0.6090850538 0.6194394245 0.5369797409 0.5452307311 0.5585762536 0.567475926 0.531987831 0.5401591951 0.5537654189 0.5625986083 0.5812763774 0.5908712629 0.6051269655 0.6154655344 0.5766896845 0.5862342421 0.6008132355 0.6111210953 0.6469724265 0.6578700682 0.6707552999 0.682331445 0.6449347574 0.6558987921 0.6691442936 0.6808137374 0.7077223817 0.7336053969 0.6426138058 0.653634748 0.6672479301 0.6790016425 0.6399937608 0.6510611017 0.6650489875 0.676876831 0.7054186444 0.7318583444 0.7902647779 0.8549747456 0.6481603858 0.6716117955 0.701861275 0.7287788792 0.6413048156 0.6648563739 0.6968799999 0.7241729889 0.7910527351 0.8583225732 0.860300687 0.7893136005 0.4554823208 0.4321178314 0.4677192266 0.4929954503 0.5133121808 0.5074312738 0.4430999321 0.4191930025 0.4547573939 0.4807414926 0.5012070009 0.4946291982 0.4741197201 0.5266706398 0.5347484039 0.5486134006 0.5573653609 0.521016932 0.5289863402 0.5431073407 0.5517624142 0.5812248909 0.6012500157 0.5150155334 0.5228610438 0.5372343728 0.5457759786 0.5086553865 0.5163606728 0.5309816822 0.5393923092 0.5700262019 0.5896823442 0.4295421243 0.4051446565 0.4478000574 0.4405159545 0.4608598465 0.4671567628 0.4807931392 0.487687934 0.4537285511 0.4598445166 0.4736578755 0.4803735738 0.4147625123 0.3899371069 0.4328986928 0.4249423252 0.446255823 0.4521752611 0.4661572938 0.4726768501 0.4384348474 0.4441417242 0.4582831434 0.4645889367 0.5019256122 0.5094735697 0.5243365729 0.5325977792 0.4948155759 0.5021883349 0.5172865401 0.5253789598 0.5571484191 0.5762714738 0.4944939043 0.5096162579 0.542465258 0.5608708463 0.6564364731 0.7178274129 0.7095100553 0.7537294172 0.7858239909 0.8234627267 0.8606874176 0.8606198865 0.7477308106 0.7803002663 0.820773906 0.8600549688 0.8589465419 0.8186270323 0.6338559401 0.6989713157 0.6859466176 0.6193031772 0.7395816548 0.7766786362 0.7724283601 0.7976921374 0.8158863853 0.8374936792 0.8572454026 0.7941801368 0.8125048116 0.834936198 0.854899208 0.7289898446 0.7675055973 0.7618648359 0.7226811175 0.7900093961 0.8084327458 0.8317086418 0.8518524461 0.7851322408 0.8036182785 0.8277571143 0.8480464443 0.9137611124 0.9791033971 0.992576966 0.9223779764 1.00407729 1.04518126 1.067234422 1.110184881 1.077948154 1.020233364 1.054630901 1.06414189 1.028299746 1.066677156 1.088818816 1.099923802 1.122511629 1.076884948 1.099835849 1.111616517 1.135078371 0.8911239098 0.9301467511 0.9624526364 0.9991682403 1.005625662 0.9675071412 0.8959809961 0.9336343406 0.9368091171 0.8979028026 0.9508258143 0.972334772 0.9892825586 1.011917268 0.9548277558 0.9768985384 0.9947144012 1.018007195 1.014068349 1.036329434 1.050613866 1.073695811 1.021321229 1.044296754 1.059387859 1.083271053 1.087187855 1.110986118 1.123496735 1.147878584 1.097568436 1.122253512 1.135553115 1.160903172 1.028459558 1.052172386 1.068126544 1.09284238 1.035450575 1.059922935 1.076800459 1.102380451 1.133618495 1.187573468 1.128138957 1.157052899 1.17187409 1.141598108 1.163427367 1.184541904 1.189477951 1.210299346 1.178679374 1.200684815 1.205974578 1.22769587 1.132508115 1.155395146 1.164114716 1.187131012 1.145714717 1.169533057 1.178840587 1.202834993 1.194408944 1.217363257 1.223044144 1.245726863 1.210632009 1.234597695 1.240711548 1.264422424 1.213684982 1.234022889 1.235765291 1.255424016 1.231344986 1.252575876 1.254479699 1.275007168 1.255454233 1.274238138 1.272515256 1.290234714 1.275086936 1.294697232 1.292904896 1.311390246 1.271858214 1.316672966 1.316049548 1.356632751 1.184013229 1.235624962 1.25240869 1.303933408 1.213995712 1.270312183 1.289841851 1.346491554 1.362017445 1.40624583 1.460873231 0.8794566702 0.8994353907 0.9183281546 0.9396305179 0.8801821063 0.9005361618 0.9202843587 0.9420541901 0.9585198358 0.9811575051 0.9998919232 1.023855283 0.9618591968 0.9850664517 1.004772207 1.029416644 0.8804412495 0.9011590562 0.9218010333 0.9440317284 0.8801878116 0.9012543791 0.9228288957 0.9455104121 0.9885755165 1.039473209 1.067510458 1.121215638 1.156542765 1.21494606 1.082018745 1.139437697 1.179512624 1.242799277 0.8793721327 0.9007686407 0.9233145873 0.9464329476 0.8779410727 0.8996444148 0.9232004737 0.9467372204 0.9941691283 1.04770509 0.8978202249 0.9452170772 0.997432463 1.053532764 1.095281811 1.156600582 1.202185769 1.270804952 1.106773204 1.172123582 1.224094734 1.298491457 1.234573486 1.306933614 1.441859312 1.345476563 1.465688258 1.588392753 1.525172246 1.311463121 1.385852061 1.417939895 1.49522378 1.441731102 1.345849731 1.406669241 1.427856552 1.363202642 1.425280681 1.466229426 1.481912393 1.523437784 1.448195623 1.491423836 1.508707072 1.55270723 1.514770308 1.590670396 1.545246597 1.594103729 1.663316945 1.630375461 1.535610442 1.577091444 1.585199587 1.625923147 1.566275116 1.610370811 1.619587093 1.662990382 1.629477829 1.668664174 1.667281821 1.704120883 1.667286087 1.709125233 1.708046615 1.747407785 1.071830286 1.059303139 1.082757702 1.107756372 1.074466138 1.065595854 1.076887409 1.088522445 1.072025836 1.067078482 1.078155615 1.07286139 1.067518969 1.078328015 1.083382717 1.089559153 1.083967192 1.089442865 1.09845214 1.112897572 1.101306143 1.112652893 1.123636563 1.163121679 1.138883581 1.137285198 1.163494162 1.072660368 1.066981594 1.077473697 1.071494602 1.065540336 1.075672137 1.083462105 1.088247907 1.081944684 1.086059734 1.069445213 1.063277407 1.073011577 1.066600998 1.060281678 1.069587295 1.079502077 1.08297314 1.076229581 1.07909034 1.099317919 1.096714869 1.107649941 1.089806053 1.093171765 1.08607499 1.088798351 1.10036814 1.103617608 1.096146032 1.098719173 1.065499809 1.052470811 1.069370321 1.074519007 1.055752897 1.042890289 1.05779205 1.081586041 1.083710031 1.076452681 1.078025745 1.091135107 1.093078415 1.085456914 1.086822637 1.071865925 1.072979725 1.080080449 1.122404333 1.130412999 1.114321322 1.108860965 1.119232195 1.146860072 1.15446265 1.136547589 1.140698353 1.100882778 1.102629821 1.094622793 1.09576422 1.110836066 1.112370025 1.103954763 1.104853651 1.087804565 1.088401561 1.080560804 1.080678097 1.096500216 1.096829918 1.088614043 1.088444043 1.122304891 1.114093979 1.123488101 1.105324206 1.1053659 1.096754147 1.096275457 1.11427811 1.114009548 1.104980024 1.104169741 1.183273084 1.227165125 1.216646099 1.196459095 1.2213678 1.225410271 1.25279987 1.240816937 1.263152592 1.262672893 1.292107872 1.282511547 1.278576736 1.302260225 1.298695041 1.263096894 1.287990461 1.300556401 1.179925556 1.163191318 1.186788955 1.14278235 1.142748261 1.122760504 1.112123732 1.120133616 1.164109697 1.16265212 1.140580452 1.128194837 1.136301987 1.235669856 1.237624021 1.266280177 1.183210854 1.152627426 1.169044531 1.045247413 1.021539154 1.043428201 1.058199807 1.020552294 1.001930155 1.017158094 1.072726988 1.071146373 1.079837523 1.056649277 1.054018545 1.087895243 1.086973013 1.078890623 1.077602627 1.095398183 1.094128465 1.085684426 1.084038266 1.068300565 1.06427626 1.0379925 1.029793353 1.045910746 1.00091802 0.9884065245 0.9993656564 0.9901586573 0.9836065574 0.9931034483 1.012227096 1.006828345 0.9982836441 0.9988109394 1.102940126 1.101298189 1.092474265 1.090445365 1.110516258 1.108475709 1.099252888 1.09681512 1.079716867 1.074112766 1.085311626 1.118121 1.115653666 1.106012156 1.103137739 1.125747896 1.122823708 1.11274294 1.109402342 1.093997702 1.090815333 1.082235279 1.078841126 1.09986663 1.096214986 1.087284543 1.083423625 1.059183493 1.053154359 1.040680216 1.03485959 1.067355616 1.059598874 1.046341188 1.038914299 1.12997636 1.115596833 1.12170777 1.105647547 1.101496319 1.092200886 1.087844247 1.111326547 1.106643678 1.096968436 1.092085588 1.144185153 1.127720211 1.133617553 1.116888282 1.111639882 1.101569864 1.096128733 1.122315808 1.116466077 1.105986251 1.099953122 1.074792919 1.065101566 1.051017304 1.041804021 1.081350664 1.069498848 1.084248159 1.054549985 1.043356846 1.019944266 1.0097695 1.00219302 0.9996795899 1.022975245 1.006961235 1.000749526 0.9944751381 1.286749156 1.303226747 1.298002416 1.313078998 1.307712332 1.324877975 1.319338134 1.335009242 1.306174034 1.31971429 1.311220318 1.323117413 1.327669206 1.34169722 1.332656014 1.344923966 1.347529903 1.357966165 1.38202349 1.350161515 1.364712214 1.355083841 1.367746957 1.373722241 1.388833937 1.378574823 1.391659573 1.323336313 1.341271358 1.344741789 1.314716525 1.325257552 1.334696706 1.356440793 1.367127639 1.354323604 1.362987632 1.379602121 1.390563242 1.376904847 1.38569277 1.348893325 1.35553062 1.340373923 1.345021691 1.370661433 1.377274163 1.361120004 1.36560125 1.396123934 1.43376935 1.414144061 1.443081262 1.449653332 1.490989204 1.46869635 1.499925832 1.415124263 1.409455744 1.434351584 1.393412668 1.399987701 1.382757496 1.387046604 1.417214587 1.423736477 1.405343981 1.409411698 1.467960965 1.487876192 1.448591074 1.432754294 1.457136231 1.295375669 1.298963483 1.267499653 1.265025493 1.331776109 1.33392725 1.351022659 1.298510551 1.293853004 1.226281502 1.185464511 1.201768238 1.248743727 1.36891803 1.371018823 1.352284008 1.352333783 1.390081169 1.391806403 1.37185781 1.371395747 1.331446763 1.324171554 1.348681124 1.412126264 1.413429475 1.392174063 1.391143423 1.435105868 1.435934413 1.413270651 1.411607724 1.369600787 1.366449224 1.344938513 1.33990508 1.388682182 1.384767278 1.361926143 1.356025946 1.284920546 1.271746354 1.235025301 1.217797395 1.31205595 1.295181931 1.254471516 1.233343253 1.554581109 1.633643556 1.625641338 1.54701454 1.509287436 1.566451466 1.612662264 1.648425141 1.705521689 1.688594969 1.67230919 1.712943161 1.713676738 1.697561419 1.73125818 1.719455897 1.749280444 1.740662757 1.776643288 1.764139752 1.795907917 1.732362559 1.757699076 1.735988173 1.756376532 1.777777413 1.804631497 1.781233188 1.802651808 1.663943571 1.685898693 1.70351841 1.625701778 1.629295713 1.730375467 1.745539836 1.715900497 1.725761328 1.77455479 1.790231276 1.758176931 1.768033157 1.697909847 1.69857409 1.737061372 1.459369885 1.432819959 1.454811524 1.408408243 1.40365026 1.379385588 1.372534468 1.428801558 1.423111395 1.397323071 1.389427774 1.509238223 1.477613489 1.501256067 1.449883587 1.443161531 1.415741961 1.406699048 1.471674067 1.463808369 1.434641999 1.424336625 1.340120601 1.318885624 1.35446789 1.273761799 1.248132545 1.379977629 1.368998197 1.343302053 1.330765826 1.396002063 1.38368409 1.356527247 1.342614425 1.29263046 1.261809843 1.563466157 1.551175291 1.485055514 1.442322908 1.460633077 1.622510551 1.604762282 1.529337393 1.479233542 1.498080117 1.412272292 1.39849107 1.369791671 1.354384322 1.428757951 1.413376279 1.383049848 1.366019641 1.310717575 1.273915866 1.319323007 1.445420054 1.428286998 1.396246953 1.377454366 1.462209315 1.443158898 1.409317271 1.388610794 1.347484602 1.327540772 1.299844995 1.279201367 1.357096958 1.335285654 1.306294592 1.283861237 1.158176121 1.139381347 1.144991097 1.12759042 1.121101566 1.110196935 1.103536415 1.13269147 1.125523635 1.114179357 1.106854329 1.171816564 1.155654898 1.129707356 1.109880481 1.11258621 1.093568136 1.086860666 1.077864665 1.07122543 1.096514492 1.089162889 1.079861645 1.072603383 1.056759796 1.043380659 1.099158985 1.091127577 1.081514875 1.073605061 1.101473659 1.092725386 1.082795873 1.074200927 1.057444078 1.041661401 1.184937549 1.165395063 1.137247701 1.11494039 1.116909237 1.197324687 1.173948348 1.143470497 1.118456095 1.119541228 1.103428283 1.09392473 1.0836741 1.074359447 1.104990186 1.094691632 1.084116832 1.074046973 1.056374512 1.037961451 1.10612408 1.094989567 1.084089026 1.073227645 1.106791872 1.094779305 1.083553195 1.071863273 1.053294707 1.032018258 1.019987736 0.9969585596 0.9926224878 0.9817776125 1.009383931 0.9781004047 0.9762916965 0.96 1.208706799 1.180991525 1.148072972 1.12012159 1.120150604 1.218742152 1.186129026 1.150692508 1.119577922 1.118349207 1.10695248 1.094018756 1.082469269 1.069913246 1.106561643 1.092662809 1.080794479 1.067334433 1.047917974 1.023543414 1.105571726 1.090663186 1.078483228 1.064081101 1.103931541 1.087968303 1.075486989 1.060104845 1.039925511 1.012222413 1.227001988 1.188878887 1.150896523 1.116405903 1.113685028 1.232951224 1.188657339 1.148171796 1.110118988 1.105635416 1.101586164 1.084523138 1.071754207 1.055354544 1.098476775 1.080269134 1.067230226 1.049776331 1.028965297 0.9977154315 1.094540513 1.075144117 1.061857241 1.043313604 1.089710365 1.069082256 1.055574286 1.035907067 1.014652145 0.9796595102 0.9892872906 0.9485374421 0.9500748381 0.9274366681 0.9575589188 0.9063019315 0.9121901516 0.8823529412 0.3987208961 0.3735413843 0.4166414088 0.4079910654 0.3902163555 0.430259289 0.43573715 0.4500276564 0.4561015272 0.421723356 0.4269553702 0.4413836218 0.4472069168 0.3774152799 0.3648910853 0.3813848538 0.3945439937 0.3989870435 0.368515427 0.3559366348 0.3722238269 0.3854537486 0.3896257819 0.4128218669 0.4177908764 0.4323444634 0.437898088 0.4035503185 0.4082388951 0.4229043204 0.4281687991 0.4778353906 0.492004236 0.5258538632 0.5433374985 0.4594195708 0.4724524441 0.5071983466 0.5235363808 0.359298197 0.3466769276 0.3627314073 0.3760191747 0.3799044727 0.3497624758 0.337111543 0.3529064765 0.3662383428 0.3698211254 0.398295464 0.4074282972 0.3399078891 0.3272407867 0.3427487165 0.3561101353 0.3593746294 0.3297348485 0.3170657318 0.3322586603 0.345634302 0.3485648159 0.3772229168 0.384954465 0.4508837492 0.5013454435 0.4766614277 0.4272384749 0.5807562459 0.6023086505 0.6436269338 0.6784162155 0.6701604414 0.5622189854 0.5826755444 0.6257476043 0.6611441043 0.6513321737 0.6157147815 0.7004567282 0.7156434148 0.7386849359 0.7554590383 0.6927874543 0.7078354067 0.7315539208 0.7482398296 0.779499066 0.7980072679 0.8230250228 0.8434194237 0.7730584898 0.791543501 0.8174531891 0.8379066074 0.68435103 0.6992152355 0.7236080213 0.7401577361 0.6751089975 0.6897407996 0.7148014019 0.7311624768 0.7841689123 0.8239506091 0.5411559019 0.571810607 0.5602172638 0.5935581211 0.6049152681 0.6279230175 0.6406900812 0.5823382925 0.5933218116 0.6167789576 0.6291840597 0.5174240331 0.5478750815 0.5347653203 0.5703461536 0.5809084921 0.6047917641 0.6167815204 0.5575594705 0.5676510742 0.5919331191 0.6034514671 0.6650230276 0.6793700837 0.705087888 0.7212033147 0.6540552579 0.6680615384 0.6944213358 0.7102294717 0.7664475186 0.8056088536 0.6557745115 0.685037384 0.7443541619 0.782283737 0.3192445951 0.306588257 0.3214377393 0.3348115153 0.3373925167 0.3084392419 0.2958110828 0.3102883284 0.3236434213 0.3258596214 0.3545606553 0.360734643 0.2973218116 0.2847378036 0.2988137879 0.3121326894 0.3139691295 0.2858962717 0.2733729166 0.2870185001 0.3002830563 0.3017251991 0.3303138865 0.3347773113 0.3930337667 0.4014787564 0.4380031216 0.4494062249 0.3670818768 0.3735929306 0.4103067433 0.4347985437 0.4195335786 0.2749079022 0.2497909634 0.2761996955 0.304507789 0.3071146931 0.2497679527 0.2251200577 0.2493409971 0.2771893811 0.2778049375 0.3392192993 0.3435997367 0.3802522224 0.4036116288 0.3870358062 0.3094872855 0.3115520541 0.3478661784 0.3698122176 0.351950127 0.4909029531 0.5208712439 0.5061784439 0.4765669404 0.5439578747 0.5535273821 0.5781765578 0.5891649462 0.5295232141 0.5385176961 0.5634978938 0.5738955294 0.4553641801 0.4615027493 0.4835029964 0.490675172 0.4401799434 0.4457052902 0.4678295895 0.4743526783 0.5142399184 0.5226051669 0.5478756688 0.5576198261 0.4980953752 0.5057762417 0.531291623 0.5403180181 0.6281098354 0.6551992355 0.7173966096 0.7533691442 0.5960883723 0.6203655703 0.6851006688 0.7366307019 0.7182782008 0.4243008298 0.4291724367 0.4513790247 0.4572055493 0.4077274972 0.4119052801 0.4341493374 0.4392320393 0.4880210965 0.5025779948 0.3904637196 0.39390837 0.4161421411 0.4204343895 0.3725165873 0.3751899356 0.3973628949 0.4008191276 0.4497140724 0.4606094244 0.5594727408 0.5802497975 0.6470378384 0.6982473173 0.676480011 0.5180976039 0.5346569341 0.6028590139 0.6529261316 0.6275451155 0.8918053648 0.9403487834 0.9977615288 1.056251361 0.8821494529 0.9314434391 0.9944433724 1.055013504 1.115831979 1.179043874 1.185258566 1.20741726 1.244610199 1.272304779 1.312016809 1.215545702 1.254093483 1.283826137 1.32519546 1.121636849 1.190641804 1.195052349 1.123011978 1.222976527 1.26289567 1.294829342 1.33790437 1.229574095 1.270870895 1.305178656 1.349999905 0.8682137771 0.9177249628 0.9866480955 1.052603485 1.048814936 0.9807794403 0.8493030165 0.9087961113 0.8983376857 0.9447348648 0.9734263865 1.011161854 1.043496491 0.9357689373 0.9644526964 1.003953046 1.03648658 1.088068101 1.123179479 1.159522866 1.198332261 1.086214313 1.121980023 1.160526171 1.2003056 1.23518513 1.277853077 1.314717678 1.361315001 1.239637044 1.283653796 1.323266835 1.371656073 1.082902845 1.119239837 1.160095443 1.20077723 1.077964933 1.114770422 1.158037339 1.199531776 1.288060153 1.388488994 1.338519521 1.380566776 1.40528234 1.449361669 1.353825803 1.397851213 1.424733212 1.47111705 1.471621531 1.51729319 1.536374096 1.583050706 1.495513841 1.543803658 1.564906154 1.614478556 1.414946156 1.515013112 1.570905566 1.680570051 1.645150259 1.743043196 1.751928079 1.842324789 1.719460603 1.831837626 1.845314763 1.950119216 1.448014319 1.558566827 1.626581767 1.750773118 1.47838202 1.600289786 1.683438197 1.824471366 1.930453748 2.215208034 2.039974477 0.824680234 0.8862331958 0.8723641158 0.8099910078 0.925162094 0.9537162226 0.9950076953 1.027613921 0.9127836565 0.941069959 0.984166004 1.016698382 0.7729037555 0.7935915778 0.8325939158 0.8566112397 0.7554582115 0.7753910445 0.8155368013 0.8388563267 0.8985002828 0.9263634394 0.9712621151 1.003552268 0.8821775248 0.9094445289 0.9561256979 0.9879821157 1.108368575 1.190922668 1.291703233 1.398288884 1.088884225 1.172331826 1.286513828 1.398198198 0.7362689214 0.755302717 0.7965289907 0.8189840549 0.715263981 0.7332459716 0.7754729361 0.7968842887 0.8901616467 0.9487819715 0.6923786172 0.7091483043 0.7522779444 0.7724546592 0.6675570733 0.682947552 0.7268626001 0.7456034362 0.8439170134 0.8975423054 1.058896309 1.141293151 1.269725008 1.384616285 1.016368797 1.095098577 1.238074524 1.371426614 1.353163319 1.504102922 1.637974788 1.739986202 1.90037574 1.522500132 1.668422068 1.793832182 1.938470404 1.976108921 1.818645 1.983373898 2.161335287 2.033236647 2.204578167 2.379741528 2.278955517 1.989279939 2.084482017 2.127053493 2.226637141 2.033983177 2.13682929 2.18630844 2.295015954 2.257533015 2.358341328 2.374116099 2.472052186 2.332019502 2.443074459 2.463383499 2.572032819 1.5299691 1.679577842 1.68710035 1.528176983 1.75109832 1.841252984 1.911579541 2.012719365 1.766087427 1.860888692 1.939752899 2.047565322 1.450056188 1.521784685 1.605327484 1.690153186 1.43743512 1.51000543 1.60067833 1.687771337 1.777287983 1.876621534 1.96503093 2.079707334 1.783732721 1.88733299 1.986359073 2.107957859 2.078719913 2.189870349 2.24748373 2.366361151 2.122904798 2.243029035 2.310230367 2.440429158 2.533474691 2.798437212 2.295508903 2.594731446 2.346226791 2.732280454 3.066666667 2.840899572 0.2212275234 0.1728079574 0.2469337006 0.2146149495 0.2779580239 0.2775398797 0.3132165501 0.333462097 0.3143641028 0.2447363915 0.241692237 0.2764160623 0.294675616 0.2744196529 0.1616533641 0.1171804241 0.180990838 0.1462305383 0.2099606852 0.2041777323 0.2376242511 0.2536227854 0.2323151094 0.2175443503 0.1738021413 0.1848587015 0.165203526 0.2007964706 0.1970476839 0.2142327871 0.2105301707 0.1807181249 0.1761671155 0.1928966129 0.1883048441 0.3538966855 0.3557620823 0.3778211493 0.3803973389 0.3346182477 0.3356409568 0.3575307612 0.3591849026 0.4076961562 0.4144385281 0.3146992766 0.3148468755 0.3365100726 0.3372026845 0.2941616296 0.2934044112 0.3147820458 0.3144766779 0.3620648328 0.3641992737 0.4718926837 0.4835140469 0.5523330012 0.6003077376 0.5711978755 0.5246598465 0.4209052786 0.4558792653 0.4268997839 0.4894264423 0.4953873231 0.5323563358 0.5402142354 0.4602514102 0.4645376147 0.5013772951 0.5073719772 0.2730310638 0.2713424308 0.2923743484 0.2910380859 0.251337236 0.2486940828 0.2693193834 0.2669233381 0.313012716 0.3101451332 0.2291136546 0.2254967275 0.2456542574 0.2421740363 0.2063975818 0.2017918099 0.221420685 0.2168368244 0.2608333054 0.252655165 0.3653199549 0.3966132618 0.3650695572 0.4296379631 0.4321473956 0.4687026973 0.4727041743 0.3976302755 0.3982685918 0.4343762598 0.4362630353 0.3054727135 0.3323309966 0.2984724236 0.3642863736 0.362968896 0.39845916 0.3981208152 0.3296783904 0.3263319926 0.3610305656 0.3583703479 0.0985077773 0.05920087209 0.1105279751 0.07409847181 0.06599478083 0.1364631179 0.1452436728 0.1250125778 0.1602971519 0.1549380928 0.1711679812 0.1656791684 0.1395680482 0.1333984665 0.1490859104 0.1426961339 0.09817388824 0.1045454647 0.08387913988 0.1185673885 0.1115882753 0.1266919673 0.1194014267 0.09733361491 0.08954949942 0.1040300144 0.09584313157 0.04691557751 0.02967786669 0.03309510738 0.03131329621 0.05249339914 0.03717440036 0.0350416814 0.02286774217 0.01484864702 0.01566754361 0.02414872126 0.0165598179 0.007626010591 -0 -0 0.008053427744 -0 0.0255463017 0.01753469716 0.02707537922 0.01860291788 0.00851978019 -0 0.009030046802 -0 0.05918809709 0.06305176502 0.04210261053 0.03951825645 0.0759067989 0.0673257851 0.08114592191 0.07207139542 0.05432837959 0.04496214347 0.05808724892 0.04813805835 0.02875332498 0.01977703269 0.03060049742 0.02107179296 0.009590034879 -0 0.0102065517 -0 0.03264088205 0.0225046288 0.03490289716 0.02409625597 0.01088761907 -0 0.01164274352 -0 0.1776246725 0.1646091296 0.2059215203 0.1922327065 0.1281030563 0.1107043853 0.1487680591 0.1294955203 0.2418568952 0.2635810042 0.2277557731 0.2938925522 0.2884574554 0.3221878079 0.3171251352 0.2570288712 0.2494602888 0.2820461535 0.2745189437 0.1751185225 0.1911069119 0.1537547628 0.2192005271 0.2094700954 0.2407381433 0.2307048741 0.1805329316 0.168629868 0.1984124833 0.1858538913 0.07736175343 0.05564608283 0.05167961194 0.08994718005 0.06515710953 0.06010932437 0.03742041637 0.02587144971 0.04023407756 0.02786003985 0.0124832595 -0 0.01342276883 -0 0.04339297331 0.03009820275 0.04695685582 0.03263015574 0.01447770853 -0 0.01566809201 -0 0.1060397375 0.1158285868 0.07746509095 0.07089756138 0.1411624815 0.1270944161 0.1552324869 0.1401528229 0.101235019 0.08502845775 0.1113740941 0.09380186566 0.050999043 0.03551040391 0.05561029255 0.03880675515 0.01701848651 -0 0.01855931732 -0 0.06090403088 0.0426044188 0.06702350627 0.04701165705 0.02032862946 -0 0.02237450032 -0 0.640754601 0.6545942434 0.6991573938 0.7162526543 0.6119395198 0.6240540292 0.6691075099 0.6843414349 0.7865420424 0.8328400644 0.5810952874 0.591310122 0.6366757074 0.649829418 0.5482225171 0.5563656651 0.6018452084 0.6127001976 0.7171788066 0.7535636048 0.9592401154 1.030963548 1.187894961 1.329171931 1.298772174 1.154652577 0.8856137469 0.9913435789 0.9463071095 1.071372749 1.115342939 1.205488808 1.261274874 1.028831166 1.06952717 1.163360791 1.216004961 0.5192459347 0.5306638349 0.6353456162 0.6591285005 0.4387036272 0.4386972773 0.5410919351 0.5497047927 0.7940240352 0.8956300781 0.8391580092 0.9801949366 1.01682019 1.113858556 1.162331071 0.9252028927 0.9569157658 1.056523107 1.099701766 0.683762199 0.7768233424 0.7086622496 0.8636794202 0.8896137828 0.9909930643 1.027687619 0.7955564036 0.8148482941 0.9170399387 0.9460273726 1.419189282 1.491975432 1.590097275 1.678854703 1.394540078 1.466762613 1.572554031 1.66216751 1.891692487 2.1308303 2.146484045 1.362672208 1.433382782 1.546925398 1.636346816 1.322754462 1.390825262 1.512014101 1.59992403 1.874857611 2.15266971 2.146682288 1.849803002 2.243102163 2.393729586 2.501260707 2.673186279 2.274563236 2.436092248 2.562050595 2.750551503 2.766802738 2.955447379 3.023284566 3.219162037 2.863905181 3.075292265 3.161532289 3.385340732 2.298492123 2.470796888 2.618291744 2.824510238 2.31218469 2.494596625 2.66707868 2.891771999 1.338089821 1.551363928 1.48912572 1.698789352 1.810702499 1.978321356 2.125334916 1.646845767 1.755125258 1.938304737 2.084972421 1.198447092 1.411749879 1.317972259 1.578865248 1.680583793 1.878875792 2.021551147 1.492995492 1.584693782 2.31230935 2.503375257 0.3503909971 0.3378155392 0.4351362083 0.4264122433 0.2554443608 0.2296024567 0.3189535992 0.3602039042 0.2914276843 0.5552179706 0.6348296578 0.5556110168 0.4845838746 0.720894368 0.7327143123 0.834604349 0.8546752085 0.6399010338 0.6434908299 0.7438302625 0.7538449016 0.4194142529 0.4101596321 0.4792386274 0.4714293073 0.3477551075 0.3324017377 0.3981675133 0.3828459087 0.5529452655 0.5476572426 0.6450936642 0.6440456217 0.4605643677 0.4459003724 0.539021658 0.5261036654 0.1554084384 0.1161624391 0.1040604728 0.1947801693 0.2205153175 0.1479509583 0.1305808565 0.07415171971 0.05216769929 0.08252543723 0.05825401738 0.02475839289 -0 0.02755989372 -0 0.09245531818 0.06551069691 0.1043554086 0.07426071606 0.03088352953 -0 0.03486877401 -0 0.2734095742 0.2518549127 0.313568483 0.2905542825 0.1968952041 0.1691415523 0.226105105 0.1953659596 0.3391097189 0.4011647524 0.2706729451 0.2283594707 0.1187873258 0.0849468164 0.1365281227 0.09818901702 0.03970507248 -0 0.04565497994 -0 0.1586775033 0.11487711 0.1868327518 0.1363247238 0.05309083453 -0 0.06255483189 -0 1.008858264 1.206863014 1.077981954 0.8947379818 1.387634727 1.46539591 1.2616268 1.321235414 0.7622158985 0.7681997964 0.9138859225 0.9315346617 0.6394692032 0.6301966054 0.7707713987 0.7685064892 1.114480633 1.151678616 0.5076906616 0.4821991654 0.6146617373 0.5907467043 0.3683767737 0.3261778704 0.447