<VTKFile type='UnstructuredGrid' version='0.1' byte_order='LittleEndian'>
<!-- curve_plot -->
  <UnstructuredGrid>
    <Piece NumberOfPoints='1147' NumberOfCells='1146'>
      <PointData Scalars='f(x) x' >
        <DataArray Name='f(x)' type='Float64' format='ascii' NumberOfComponents='1'>
          3.2 3.2 3.2 3.2 3.2 3.2 3.2 3.2 3.2 3.2 3.2 3.2 3.2 3.2 3.2 3.2 3.2 3.2 3.2 3.2 3.199317061 3.176888714 3.154371772 3.131764204 3.109063909 3.086268716 3.063376382 3.040384588 3.017290932 2.970788013 2.923846663 2.731219468 2.52941342 2.087155327 1.555857212 1.221397289 0.7670449054 0.6053299412 0.3821665426 nan nan nan nan nan nan nan nan nan nan nan nan nan nan nan nan nan nan nan nan nan nan nan nan nan nan nan nan nan nan nan nan nan nan nan nan nan nan nan nan nan nan nan nan nan nan nan nan nan nan nan nan nan nan nan nan nan nan nan nan nan nan nan nan nan nan nan nan nan nan nan nan nan nan nan nan nan nan nan nan nan nan nan nan nan nan nan nan nan nan nan nan nan nan nan nan nan nan nan nan nan nan nan nan nan nan nan nan nan nan nan nan nan nan nan nan nan nan nan nan nan nan nan nan nan nan nan nan nan nan nan nan nan nan nan nan nan nan nan nan nan nan nan nan nan nan nan nan nan nan nan nan nan nan nan nan nan nan nan nan nan nan nan nan nan nan nan nan nan nan nan nan nan nan nan nan nan nan nan nan nan nan nan nan nan nan nan nan nan nan nan nan nan nan nan nan nan nan nan nan nan nan nan nan nan nan nan nan nan nan nan nan nan nan nan nan nan nan nan nan nan nan nan nan nan nan nan nan nan nan nan nan nan nan nan nan nan nan nan nan nan nan nan nan nan nan nan nan nan nan nan nan nan nan nan nan nan nan nan nan nan nan nan nan nan nan nan nan nan nan nan nan nan nan nan nan nan nan nan nan nan nan nan nan nan nan nan nan nan nan nan nan nan nan nan nan nan nan nan nan nan nan nan nan nan nan nan nan nan nan nan nan nan nan nan nan nan nan nan nan nan nan nan nan nan nan nan nan nan nan nan nan nan nan nan nan nan nan nan nan nan nan nan nan nan nan nan nan nan nan nan nan nan nan nan nan nan nan nan nan nan nan nan nan nan nan nan nan nan nan nan nan nan nan nan nan nan nan nan nan nan nan nan nan nan nan nan nan nan nan nan nan nan nan nan nan nan nan nan nan nan nan nan nan nan nan nan nan nan nan nan nan nan nan nan nan nan nan nan nan nan nan nan nan nan nan nan nan nan nan nan nan nan nan nan nan nan nan nan nan nan nan nan nan nan nan nan nan nan nan nan nan nan nan nan nan nan nan nan nan nan nan nan nan nan nan nan nan nan nan nan nan nan nan nan nan nan nan nan nan nan nan nan nan nan nan nan nan nan nan nan nan nan nan nan nan nan nan nan nan nan nan nan nan nan nan nan nan nan nan nan nan nan nan nan nan nan nan nan nan nan nan nan nan nan nan nan nan nan nan nan nan nan nan nan nan nan nan nan nan nan nan nan nan nan nan nan nan nan nan nan nan nan nan nan nan nan nan nan nan nan nan nan nan nan nan nan nan nan nan nan nan nan nan nan nan nan nan nan nan nan nan nan nan nan nan nan nan nan nan nan nan nan nan nan nan nan nan nan nan nan nan nan nan nan nan nan nan nan nan nan nan nan nan nan nan nan nan nan nan nan nan nan nan nan nan nan nan nan nan nan nan nan nan nan nan nan nan nan nan nan nan nan nan nan nan nan nan nan nan nan nan nan nan nan nan nan nan nan nan nan nan nan nan nan nan nan nan nan nan nan nan nan nan nan nan nan nan nan nan nan nan nan 0.1238176703 0.1953019003 0.2464416826 0.3858446212 0.4831673434 0.7318866682 0.8826906173 0.9810922311 1.0412746 1.058931064 1.068697958 1.069366823 1.069912546 1.070334828 1.070633309 1.070807572 1.070857137 1.070781461 1.070579936 1.07025189 1.069796583 1.069213202 1.068500864 1.066685407 1.064341593 1.02502358 0.9404065462 0.8731020083 0.7781092887 0.7136415608 0.6290880977 0.574080111 0.5036696525 0.4585863439 0.4014548066 0.3192986642 -0 -0.320610998 -0.4047617469 -0.4642647857 -0.512003287 -0.5883914664 -0.6500942719 -0.749729963 -0.8311096335 -0.9643038624 -1.07465604 -1.257601768 -1.41011877 -1.659938193 -1.85860345 -2.017216599 -2.140513052 -2.230761566 -2.289077278 -2.306434461 -2.3159676 -2.317129958 -2.317804093 -2.317989993 -2.317687605 -2.315617542 -2.311592682 -2.2759025 -2.208714498 -2.10976016 -1.978714215 -1.815213642 -1.618870407 -1.389280193 -1.126028518 -0.8286950718 -0.4968568397 -0.3178660675 -0.1300903648 -0.1059980837 -0.08176761115 -0.06960052093 -0.0573988443 -0.04516256839 -0.03289168039 -0.02058616744 -0.008246016703 2.73194574 2.690788863 2.647261029 2.601511637 2.553697709 2.503983354 2.452539205 2.399541831 2.34517313 2.289619711 2.233072246 2.17572482 2.117774263 2.059419476 2.000860747 1.942299063 1.883935423 1.825970145 1.768602181 1.71202843 1.656443069 1.602036879 1.548996597 1.497504269 1.447736629 1.399864493 1.354052169 1.310456897 1.269228306 1.230507902 1.194428585 1.161114186 1.130679049 1.103227635 1.078854163 1.057642291 1.039664821 1.024983457 1.013648589 1.005699121 1.001162338 1.000053811 1.002377345 1.008124964 1.017276942 1.029801867 1.045656749 1.064787172 1.087127475 1.11260098 1.141120257 1.17258742 1.206894465 1.243923644 1.283547862 1.325631119 1.370028976 1.416589048 1.46515153 1.515549743 1.567610708 1.62115574 1.676001057 1.731958419 1.788835765 1.846437879 1.904567055 1.963023781 2.021607418 2.080116893 2.138351388 2.196111026 2.253197564 2.309415065 2.364570577 2.418474794 2.470942703 2.521794221 2.570854813 2.617956092 2.662936393 2.705641334 2.745924341 2.783647152 2.818680294 2.850903525 2.880206245 2.906487882 2.92965823 2.949637763 2.966357906 2.979761271 2.989801856 2.996445197 2.999668494 2.999460684 2.995822479 2.988766367 2.978316566 2.964508943 2.947390888 2.927021155 2.903469658 2.876817232 2.847155354 2.81458583 2.779220448 2.741180591 2.70059682 2.657608428 2.612362963 2.565015718 2.515729201 2.464672574 2.412021077 2.357955422 2.302661177 2.246328124 2.189149613 2.131321894 2.073043445 2.014514294 1.955935326 1.897507599 1.839431651 1.781906813 1.725130525 1.669297655 1.614599838 1.561224808 1.509355763 1.459170729 1.410841953 1.364535313 1.320409743 1.278616694 1.23929961 1.202593436 1.168624157 1.137508363 1.109352853 1.084254262 1.062298736 1.04356163 1.028107256 1.015988655 1.007247424 1.001913562 1.000005379 1.001529422 1.006480461 1.014841504 1.026583851 1.041667202 1.060039787 1.081638545 1.106389345 1.134207237 1.164996741 1.198652182 1.235058045 1.274089377 1.315612212 1.359484033 1.405554263 1.453664776 1.503650446 1.55533971 1.608555156 1.663114138 1.718829394 1.775509697 1.832960506 1.890984635 1.949382932 2.007954959 2.066499682 2.124816163 2.182704243 2.239965238 2.296402613 2.351822662 2.406035169 2.458854064 2.510098059 2.559591272 2.60716383 2.652652454 2.695901014 2.736761071 2.775092383 2.810763388 2.843651654 2.8736443 2.900638385 2.924541258 2.945270878 2.962756097 2.976936901 2.987764617 2.995202083 2.999223771 2.999815878 2.996976372 2.990714998 2.981053247 2.96802428 2.951672817 2.932054978 2.909238099 2.883300491 2.854331179 2.822429593 2.787705227 2.750277263 2.710274163 2.667833229 2.623100126 2.576228391 2.527378899 2.476719313 2.42442351 2.370670981 2.315646218 2.259538079 2.202539143 2.144845042 2.086653797 2.028165136 1.969579805 1.911098883 1.852923092 1.795252105 1.738283863 1.682213895 1.627234646 1.57353482 1.521298728 1.470705655 1.42192925 1.375136926 1.330489286 1.288139571 1.248233135 1.210906947 1.176289121 1.144498473 1.115644115 1.089825084 1.067129997 1.047636749 1.031412245 1.018512171 1.008980805 1.00285086 1.000143376 1.000867644 1.005021181 1.012589728 1.02354731 1.037856318 1.055467638 1.076320826 1.100344307 1.127455627 1.157561733 1.190559294 1.226335055 1.264766223 1.305720895 1.349058502 1.3946303 1.442279876 1.491843684 1.54315161 1.596027551 1.650290024 1.705752788 1.762225481 1.819514274 1.877422539 1.935751519 1.994301016 2.052870074 2.111257668 2.169263398 2.226688176 2.283334903 2.339009156 2.393519846 2.44667988 2.498306798 2.548223405 2.596258375 2.64224684 2.686030956 2.727460446 2.766393113 2.802695331 2.836242501 2.866919482 2.894620982 2.919251924 2.940727767 2.958974802 2.9739304 2.98554323 2.993773434 2.998592763 2.999984677 2.997944398 2.992478929 2.983607029 2.971359148 2.955777324 2.936915038 2.91483703 2.889619076 2.861347732 2.83012003 2.796043153 2.759234061 2.719819091 2.677933525 2.633721125 2.587333638 2.538930279 2.488677178 2.436746817 2.383317434 2.328572412 2.272699649 2.215890913 2.158341187 2.100247995 2.041810727 1.983229954 1.924706741 1.866441952 1.808635568 1.751485993 1.695189379 
        </DataArray>
        <DataArray Name='x' type='Float64' format='ascii' NumberOfComponents='1'>
          -2.90625 -3 -2.8125 -2.765625 -2.71875 -2.6953125 -2.671875 -2.66015625 -2.6484375 -2.642578125 -2.63671875 -2.633789062 -2.630859375 -2.629394531 -2.627929688 -2.626464844 -2.625 -2.623535156 -2.622070312 -2.620605469 -2.619140625 -2.617675781 -2.616210938 -2.614746094 -2.61328125 -2.611816406 -2.610351562 -2.608886719 -2.607421875 -2.604492188 -2.6015625 -2.58984375 -2.578125 -2.5546875 -2.53125 -2.51953125 -2.5078125 -2.504882812 -2.501953125 -2.499023438 -2.49609375 -2.493164062 -2.490234375 -2.487304688 -2.484375 -2.481445312 -2.478515625 -2.475585938 -2.47265625 -2.469726562 -2.466796875 -2.463867188 -2.4609375 -2.458007812 -2.455078125 -2.452148438 -2.44921875 -2.446289062 -2.443359375 -2.440429688 -2.4375 -2.434570312 -2.431640625 -2.428710938 -2.42578125 -2.422851562 -2.419921875 -2.416992188 -2.4140625 -2.411132812 -2.408203125 -2.405273438 -2.40234375 -2.399414062 -2.396484375 -2.393554688 -2.390625 -2.387695312 -2.384765625 -2.381835938 -2.37890625 -2.375976562 -2.373046875 -2.370117188 -2.3671875 -2.364257812 -2.361328125 -2.358398438 -2.35546875 -2.352539062 -2.349609375 -2.346679688 -2.34375 -2.340820312 -2.337890625 -2.334960938 -2.33203125 -2.329101562 -2.326171875 -2.323242188 -2.3203125 -2.317382812 -2.314453125 -2.311523438 -2.30859375 -2.305664062 -2.302734375 -2.299804688 -2.296875 -2.293945312 -2.291015625 -2.288085938 -2.28515625 -2.282226562 -2.279296875 -2.276367188 -2.2734375 -2.270507812 -2.267578125 -2.264648438 -2.26171875 -2.258789062 -2.255859375 -2.252929688 -2.25 -2.247070312 -2.244140625 -2.241210938 -2.23828125 -2.235351562 -2.232421875 -2.229492188 -2.2265625 -2.223632812 -2.220703125 -2.217773438 -2.21484375 -2.211914062 -2.208984375 -2.206054688 -2.203125 -2.200195312 -2.197265625 -2.194335938 -2.19140625 -2.188476562 -2.185546875 -2.182617188 -2.1796875 -2.176757812 -2.173828125 -2.170898438 -2.16796875 -2.165039062 -2.162109375 -2.159179688 -2.15625 -2.153320312 -2.150390625 -2.147460938 -2.14453125 -2.141601562 -2.138671875 -2.135742188 -2.1328125 -2.129882812 -2.126953125 -2.124023438 -2.12109375 -2.118164062 -2.115234375 -2.112304688 -2.109375 -2.106445312 -2.103515625 -2.100585938 -2.09765625 -2.094726562 -2.091796875 -2.088867188 -2.0859375 -2.083007812 -2.080078125 -2.077148438 -2.07421875 -2.071289062 -2.068359375 -2.065429688 -2.0625 -2.059570312 -2.056640625 -2.053710938 -2.05078125 -2.047851562 -2.044921875 -2.041992188 -2.0390625 -2.036132812 -2.033203125 -2.030273438 -2.02734375 -2.024414062 -2.021484375 -2.018554688 -2.015625 -2.012695312 -2.009765625 -2.006835938 -2.00390625 -2.000976562 -1.998046875 -1.995117188 -1.9921875 -1.989257812 -1.986328125 -1.983398438 -1.98046875 -1.977539062 -1.974609375 -1.971679688 -1.96875 -1.965820312 -1.962890625 -1.959960938 -1.95703125 -1.954101562 -1.951171875 -1.948242188 -1.9453125 -1.942382812 -1.939453125 -1.936523438 -1.93359375 -1.930664062 -1.927734375 -1.924804688 -1.921875 -1.918945312 -1.916015625 -1.913085938 -1.91015625 -1.907226562 -1.904296875 -1.901367188 -1.8984375 -1.895507812 -1.892578125 -1.889648438 -1.88671875 -1.883789062 -1.880859375 -1.877929688 -1.875 -1.872070312 -1.869140625 -1.866210938 -1.86328125 -1.860351562 -1.857421875 -1.854492188 -1.8515625 -1.848632812 -1.845703125 -1.842773438 -1.83984375 -1.836914062 -1.833984375 -1.831054688 -1.828125 -1.825195312 -1.822265625 -1.819335938 -1.81640625 -1.813476562 -1.810546875 -1.807617188 -1.8046875 -1.801757812 -1.798828125 -1.795898438 -1.79296875 -1.790039062 -1.787109375 -1.784179688 -1.78125 -1.778320312 -1.775390625 -1.772460938 -1.76953125 -1.766601562 -1.763671875 -1.760742188 -1.7578125 -1.754882812 -1.751953125 -1.749023438 -1.74609375 -1.743164062 -1.740234375 -1.737304688 -1.734375 -1.731445312 -1.728515625 -1.725585938 -1.72265625 -1.719726562 -1.716796875 -1.713867188 -1.7109375 -1.708007812 -1.705078125 -1.702148438 -1.69921875 -1.696289062 -1.693359375 -1.690429688 -1.6875 -1.684570312 -1.681640625 -1.678710938 -1.67578125 -1.672851562 -1.669921875 -1.666992188 -1.6640625 -1.661132812 -1.658203125 -1.655273438 -1.65234375 -1.649414062 -1.646484375 -1.643554688 -1.640625 -1.637695312 -1.634765625 -1.631835938 -1.62890625 -1.625976562 -1.623046875 -1.620117188 -1.6171875 -1.614257812 -1.611328125 -1.608398438 -1.60546875 -1.602539062 -1.599609375 -1.596679688 -1.59375 -1.590820312 -1.587890625 -1.584960938 -1.58203125 -1.579101562 -1.576171875 -1.573242188 -1.5703125 -1.567382812 -1.564453125 -1.561523438 -1.55859375 -1.555664062 -1.552734375 -1.549804688 -1.546875 -1.543945312 -1.541015625 -1.538085938 -1.53515625 -1.532226562 -1.529296875 -1.526367188 -1.5234375 -1.520507812 -1.517578125 -1.514648438 -1.51171875 -1.508789062 -1.505859375 -1.502929688 -1.5 -1.497070312 -1.494140625 -1.491210938 -1.48828125 -1.485351562 -1.482421875 -1.479492188 -1.4765625 -1.473632812 -1.470703125 -1.467773438 -1.46484375 -1.461914062 -1.458984375 -1.456054688 -1.453125 -1.450195312 -1.447265625 -1.444335938 -1.44140625 -1.438476562 -1.435546875 -1.432617188 -1.4296875 -1.426757812 -1.423828125 -1.420898438 -1.41796875 -1.415039062 -1.412109375 -1.409179688 -1.40625 -1.403320312 -1.400390625 -1.397460938 -1.39453125 -1.391601562 -1.388671875 -1.385742188 -1.3828125 -1.379882812 -1.376953125 -1.374023438 -1.37109375 -1.368164062 -1.365234375 -1.362304688 -1.359375 -1.356445312 -1.353515625 -1.350585938 -1.34765625 -1.344726562 -1.341796875 -1.338867188 -1.3359375 -1.333007812 -1.330078125 -1.327148438 -1.32421875 -1.321289062 -1.318359375 -1.315429688 -1.3125 -1.309570312 -1.306640625 -1.303710938 -1.30078125 -1.297851562 -1.294921875 -1.291992188 -1.2890625 -1.286132812 -1.283203125 -1.280273438 -1.27734375 -1.274414062 -1.271484375 -1.268554688 -1.265625 -1.262695312 -1.259765625 -1.256835938 -1.25390625 -1.250976562 -1.248046875 -1.245117188 -1.2421875 -1.239257812 -1.236328125 -1.233398438 -1.23046875 -1.227539062 -1.224609375 -1.221679688 -1.21875 -1.215820312 -1.212890625 -1.209960938 -1.20703125 -1.204101562 -1.201171875 -1.198242188 -1.1953125 -1.192382812 -1.189453125 -1.186523438 -1.18359375 -1.180664062 -1.177734375 -1.174804688 -1.171875 -1.168945312 -1.166015625 -1.163085938 -1.16015625 -1.157226562 -1.154296875 -1.151367188 -1.1484375 -1.145507812 -1.142578125 -1.139648438 -1.13671875 -1.133789062 -1.130859375 -1.127929688 -1.125 -1.122070312 -1.119140625 -1.116210938 -1.11328125 -1.110351562 -1.107421875 -1.104492188 -1.1015625 -1.098632812 -1.095703125 -1.092773438 -1.08984375 -1.086914062 -1.083984375 -1.081054688 -1.078125 -1.075195312 -1.072265625 -1.069335938 -1.06640625 -1.063476562 -1.060546875 -1.057617188 -1.0546875 -1.051757812 -1.048828125 -1.045898438 -1.04296875 -1.040039062 -1.037109375 -1.034179688 -1.03125 -1.028320312 -1.025390625 -1.022460938 -1.01953125 -1.016601562 -1.013671875 -1.010742188 -1.0078125 -1.004882812 -1.001953125 -0.9990234375 -0.99609375 -0.9931640625 -0.990234375 -0.9873046875 -0.984375 -0.9814453125 -0.978515625 -0.9755859375 -0.97265625 -0.9697265625 -0.966796875 -0.9638671875 -0.9609375 -0.9580078125 -0.955078125 -0.9521484375 -0.94921875 -0.9462890625 -0.943359375 -0.9404296875 -0.9375 -0.9345703125 -0.931640625 -0.9287109375 -0.92578125 -0.9228515625 -0.919921875 -0.9169921875 -0.9140625 -0.9111328125 -0.908203125 -0.9052734375 -0.90234375 -0.8994140625 -0.896484375 -0.8935546875 -0.890625 -0.8876953125 -0.884765625 -0.8818359375 -0.87890625 -0.8759765625 -0.873046875 -0.8701171875 -0.8671875 -0.8642578125 -0.861328125 -0.8583984375 -0.85546875 -0.8525390625 -0.849609375 -0.8466796875 -0.84375 -0.8408203125 -0.837890625 -0.8349609375 -0.83203125 -0.8291015625 -0.826171875 -0.8232421875 -0.8203125 -0.8173828125 -0.814453125 -0.8115234375 -0.80859375 -0.8056640625 -0.802734375 -0.7998046875 -0.796875 -0.7939453125 -0.791015625 -0.7880859375 -0.78515625 -0.7822265625 -0.779296875 -0.7763671875 -0.7734375 -0.7705078125 -0.767578125 -0.7646484375 -0.76171875 -0.7587890625 -0.755859375 -0.7529296875 -0.75 -0.7470703125 -0.744140625 -0.7412109375 -0.73828125 -0.7353515625 -0.732421875 -0.7294921875 -0.7265625 -0.7236328125 -0.720703125 -0.7177734375 -0.71484375 -0.7119140625 -0.708984375 -0.7060546875 -0.703125 -0.7001953125 -0.697265625 -0.6943359375 -0.69140625 -0.6884765625 -0.685546875 -0.6826171875 -0.6796875 -0.6767578125 -0.673828125 -0.6708984375 -0.66796875 -0.6650390625 -0.662109375 -0.6591796875 -0.65625 -0.6533203125 -0.650390625 -0.6474609375 -0.64453125 -0.6416015625 -0.638671875 -0.6357421875 -0.6328125 -0.6298828125 -0.626953125 -0.6240234375 -0.62109375 -0.6181640625 -0.615234375 -0.6123046875 -0.609375 -0.6064453125 -0.603515625 -0.6005859375 -0.59765625 -0.5947265625 -0.591796875 -0.5888671875 -0.5859375 -0.5830078125 -0.580078125 -0.5771484375 -0.57421875 -0.5712890625 -0.568359375 -0.5654296875 -0.5625 -0.5595703125 -0.556640625 -0.5537109375 -0.55078125 -0.5478515625 -0.544921875 -0.5419921875 -0.5390625 -0.5361328125 -0.533203125 -0.5302734375 -0.52734375 -0.5244140625 -0.521484375 -0.5185546875 -0.515625 -0.5126953125 -0.509765625 -0.5068359375 -0.50390625 -0.5009765625 -0.498046875 -0.4951171875 -0.4921875 -0.48046875 -0.46875 -0.421875 -0.375 -0.328125 -0.28125 -0.2578125 -0.234375 -0.2314453125 -0.228515625 -0.2255859375 -0.22265625 -0.2197265625 -0.216796875 -0.2138671875 -0.2109375 -0.2080078125 -0.205078125 -0.2021484375 -0.19921875 -0.193359375 -0.1875 -0.140625 -0.09375 -0.0703125 -0.046875 -0.03515625 -0.0234375 -0.017578125 -0.01171875 -0.0087890625 -0.005859375 -0.0029296875 0 0.0029296875 0.005859375 0.0087890625 0.01171875 0.017578125 0.0234375 0.03515625 0.046875 0.0703125 0.09375 0.140625 0.1875 0.28125 0.375 0.46875 0.5625 0.65625 0.75 0.796875 0.84375 0.85546875 0.8671875 0.87890625 0.890625 0.9140625 0.9375 1.03125 1.125 1.21875 1.3125 1.40625 1.5 1.59375 1.6875 1.78125 1.875 1.921875 1.96875 1.974609375 1.98046875 1.983398438 1.986328125 1.989257812 1.9921875 1.995117188 1.998046875 2.000976562 2.00390625 2.006835938 2.009765625 2.012695312 2.015625 2.018554688 2.021484375 2.024414062 2.02734375 2.030273438 2.033203125 2.036132812 2.0390625 2.041992188 2.044921875 2.047851562 2.05078125 2.053710938 2.056640625 2.059570312 2.0625 2.065429688 2.068359375 2.071289062 2.07421875 2.077148438 2.080078125 2.083007812 2.0859375 2.088867188 2.091796875 2.094726562 2.09765625 2.100585938 2.103515625 2.106445312 2.109375 2.112304688 2.115234375 2.118164062 2.12109375 2.124023438 2.126953125 2.129882812 2.1328125 2.135742188 2.138671875 2.141601562 2.14453125 2.147460938 2.150390625 2.153320312 2.15625 2.159179688 2.162109375 2.165039062 2.16796875 2.170898438 2.173828125 2.176757812 2.1796875 2.182617188 2.185546875 2.188476562 2.19140625 2.194335938 2.197265625 2.200195312 2.203125 2.206054688 2.208984375 2.211914062 2.21484375 2.217773438 2.220703125 2.223632812 2.2265625 2.229492188 2.232421875 2.235351562 2.23828125 2.241210938 2.244140625 2.247070312 2.25 2.252929688 2.255859375 2.258789062 2.26171875 2.264648438 2.267578125 2.270507812 2.2734375 2.276367188 2.279296875 2.282226562 2.28515625 2.288085938 2.291015625 2.293945312 2.296875 2.299804688 2.302734375 2.305664062 2.30859375 2.311523438 2.314453125 2.317382812 2.3203125 2.323242188 2.326171875 2.329101562 2.33203125 2.334960938 2.337890625 2.340820312 2.34375 2.346679688 2.349609375 2.352539062 2.35546875 2.358398438 2.361328125 2.364257812 2.3671875 2.370117188 2.373046875 2.375976562 2.37890625 2.381835938 2.384765625 2.387695312 2.390625 2.393554688 2.396484375 2.399414062 2.40234375 2.405273438 2.408203125 2.411132812 2.4140625 2.416992188 2.419921875 2.422851562 2.42578125 2.428710938 2.431640625 2.434570312 2.4375 2.440429688 2.443359375 2.446289062 2.44921875 2.452148438 2.455078125 2.458007812 2.4609375 2.463867188 2.466796875 2.469726562 2.47265625 2.475585938 2.478515625 2.481445312 2.484375 2.487304688 2.490234375 2.493164062 2.49609375 2.499023438 2.501953125 2.504882812 2.5078125 2.510742188 2.513671875 2.516601562 2.51953125 2.522460938 2.525390625 2.528320312 2.53125 2.534179688 2.537109375 2.540039062 2.54296875 2.545898438 2.548828125 2.551757812 2.5546875 2.557617188 2.560546875 2.563476562 2.56640625 2.569335938 2.572265625 2.575195312 2.578125 2.581054688 2.583984375 2.586914062 2.58984375 2.592773438 2.595703125 2.598632812 2.6015625 2.604492188 2.607421875 2.610351562 2.61328125 2.616210938 2.619140625 2.622070312 2.625 2.627929688 2.630859375 2.633789062 2.63671875 2.639648438 2.642578125 2.645507812 2.6484375 2.651367188 2.654296875 2.657226562 2.66015625 2.663085938 2.666015625 2.668945312 2.671875 2.674804688 2.677734375 2.680664062 2.68359375 2.686523438 2.689453125 2.692382812 2.6953125 2.698242188 2.701171875 2.704101562 2.70703125 2.709960938 2.712890625 2.715820312 2.71875 2.721679688 2.724609375 2.727539062 2.73046875 2.733398438 2.736328125 2.739257812 2.7421875 2.745117188 2.748046875 2.750976562 2.75390625 2.756835938 2.759765625 2.762695312 2.765625 2.768554688 2.771484375 2.774414062 2.77734375 2.780273438 2.783203125 2.786132812 2.7890625 2.791992188 2.794921875 2.797851562 2.80078125 2.803710938 2.806640625 2.809570312 2.8125 2.815429688 2.818359375 2.821289062 2.82421875 2.827148438 2.830078125 2.833007812 2.8359375 2.838867188 2.841796875 2.844726562 2.84765625 2.850585938 2.853515625 2.856445312 2.859375 2.862304688 2.865234375 2.868164062 2.87109375 2.874023438 2.876953125 2.879882812 2.8828125 2.885742188 2.888671875 2.891601562 2.89453125 2.897460938 2.900390625 2.903320312 2.90625 2.909179688 2.912109375 2.915039062 2.91796875 2.920898438 2.923828125 2.926757812 2.9296875 2.932617188 2.935546875 2.938476562 2.94140625 2.944335938 2.947265625 2.950195312 2.953125 2.956054688 2.958984375 2.961914062 2.96484375 2.967773438 2.970703125 2.973632812 2.9765625 2.979492188 2.982421875 2.985351562 2.98828125 2.991210938 2.994140625 2.997070312 3 
        </DataArray>
      </PointData>
      <Points>
        <DataArray Name='Points' type='Float64' format='ascii' NumberOfComponents='3'>
          -2.90625 3.2 0
          -3 3.2 0
          -2.8125 3.2 0
          -2.765625 3.2 0
          -2.71875 3.2 0
          -2.6953125 3.2 0
          -2.671875 3.2 0
          -2.66015625 3.2 0
          -2.6484375 3.2 0
          -2.642578125 3.2 0
          -2.63671875 3.2 0
          -2.633789062 3.2 0
          -2.630859375 3.2 0
          -2.629394531 3.2 0
          -2.627929688 3.2 0
          -2.626464844 3.2 0
          -2.625 3.2 0
          -2.623535156 3.2 0
          -2.622070312 3.2 0
          -2.620605469 3.2 0
          -2.619140625 3.199317061 0
          -2.617675781 3.176888714 0
          -2.616210938 3.154371772 0
          -2.614746094 3.131764204 0
          -2.61328125 3.109063909 0
          -2.611816406 3.086268716 0
          -2.610351562 3.063376382 0
          -2.608886719 3.040384588 0
          -2.607421875 3.017290932 0
          -2.604492188 2.970788013 0
          -2.6015625 2.923846663 0
          -2.58984375 2.731219468 0
          -2.578125 2.52941342 0
          -2.5546875 2.087155327 0
          -2.53125 1.555857212 0
          -2.51953125 1.221397289 0
          -2.5078125 0.7670449054 0
          -2.504882812 0.6053299412 0
          -2.501953125 0.3821665426 0
          -2.499023438 nan 0
          -2.49609375 nan 0
          -2.493164062 nan 0
          -2.490234375 nan 0
          -2.487304688 nan 0
          -2.484375 nan 0
          -2.481445312 nan 0
          -2.478515625 nan 0
          -2.475585938 nan 0
          -2.47265625 nan 0
          -2.469726562 nan 0
          -2.466796875 nan 0
          -2.463867188 nan 0
          -2.4609375 nan 0
          -2.458007812 nan 0
          -2.455078125 nan 0
          -2.452148438 nan 0
          -2.44921875 nan 0
          -2.446289062 nan 0
          -2.443359375 nan 0
          -2.440429688 nan 0
          -2.4375 nan 0
          -2.434570312 nan 0
          -2.431640625 nan 0
          -2.428710938 nan 0
          -2.42578125 nan 0
          -2.422851562 nan 0
          -2.419921875 nan 0
          -2.416992188 nan 0
          -2.4140625 nan 0
          -2.411132812 nan 0
          -2.408203125 nan 0
          -2.405273438 nan 0
          -2.40234375 nan 0
          -2.399414062 nan 0
          -2.396484375 nan 0
          -2.393554688 nan 0
          -2.390625 nan 0
          -2.387695312 nan 0
          -2.384765625 nan 0
          -2.381835938 nan 0
          -2.37890625 nan 0
          -2.375976562 nan 0
          -2.373046875 nan 0
          -2.370117188 nan 0
          -2.3671875 nan 0
          -2.364257812 nan 0
          -2.361328125 nan 0
          -2.358398438 nan 0
          -2.35546875 nan 0
          -2.352539062 nan 0
          -2.349609375 nan 0
          -2.346679688 nan 0
          -2.34375 nan 0
          -2.340820312 nan 0
          -2.337890625 nan 0
          -2.334960938 nan 0
          -2.33203125 nan 0
          -2.329101562 nan 0
          -2.326171875 nan 0
          -2.323242188 nan 0
          -2.3203125 nan 0
          -2.317382812 nan 0
          -2.314453125 nan 0
          -2.311523438 nan 0
          -2.30859375 nan 0
          -2.305664062 nan 0
          -2.302734375 nan 0
          -2.299804688 nan 0
          -2.296875 nan 0
          -2.293945312 nan 0
          -2.291015625 nan 0
          -2.288085938 nan 0
          -2.28515625 nan 0
          -2.282226562 nan 0
          -2.279296875 nan 0
          -2.276367188 nan 0
          -2.2734375 nan 0
          -2.270507812 nan 0
          -2.267578125 nan 0
          -2.264648438 nan 0
          -2.26171875 nan 0
          -2.258789062 nan 0
          -2.255859375 nan 0
          -2.252929688 nan 0
          -2.25 nan 0
          -2.247070312 nan 0
          -2.244140625 nan 0
          -2.241210938 nan 0
          -2.23828125 nan 0
          -2.235351562 nan 0
          -2.232421875 nan 0
          -2.229492188 nan 0
          -2.2265625 nan 0
          -2.223632812 nan 0
          -2.220703125 nan 0
          -2.217773438 nan 0
          -2.21484375 nan 0
          -2.211914062 nan 0
          -2.208984375 nan 0
          -2.206054688 nan 0
          -2.203125 nan 0
          -2.200195312 nan 0
          -2.197265625 nan 0
          -2.194335938 nan 0
          -2.19140625 nan 0
          -2.188476562 nan 0
          -2.185546875 nan 0
          -2.182617188 nan 0
          -2.1796875 nan 0
          -2.176757812 nan 0
          -2.173828125 nan 0
          -2.170898438 nan 0
          -2.16796875 nan 0
          -2.165039062 nan 0
          -2.162109375 nan 0
          -2.159179688 nan 0
          -2.15625 nan 0
          -2.153320312 nan 0
          -2.150390625 nan 0
          -2.147460938 nan 0
          -2.14453125 nan 0
          -2.141601562 nan 0
          -2.138671875 nan 0
          -2.135742188 nan 0
          -2.1328125 nan 0
          -2.129882812 nan 0
          -2.126953125 nan 0
          -2.124023438 nan 0
          -2.12109375 nan 0
          -2.118164062 nan 0
          -2.115234375 nan 0
          -2.112304688 nan 0
          -2.109375 nan 0
          -2.106445312 nan 0
          -2.103515625 nan 0
          -2.100585938 nan 0
          -2.09765625 nan 0
          -2.094726562 nan 0
          -2.091796875 nan 0
          -2.088867188 nan 0
          -2.0859375 nan 0
          -2.083007812 nan 0
          -2.080078125 nan 0
          -2.077148438 nan 0
          -2.07421875 nan 0
          -2.071289062 nan 0
          -2.068359375 nan 0
          -2.065429688 nan 0
          -2.0625 nan 0
          -2.059570312 nan 0
          -2.056640625 nan 0
          -2.053710938 nan 0
          -2.05078125 nan 0
          -2.047851562 nan 0
          -2.044921875 nan 0
          -2.041992188 nan 0
          -2.0390625 nan 0
          -2.036132812 nan 0
          -2.033203125 nan 0
          -2.030273438 nan 0
          -2.02734375 nan 0
          -2.024414062 nan 0
          -2.021484375 nan 0
          -2.018554688 nan 0
          -2.015625 nan 0
          -2.012695312 nan 0
          -2.009765625 nan 0
          -2.006835938 nan 0
          -2.00390625 nan 0
          -2.000976562 nan 0
          -1.998046875 nan 0
          -1.995117188 nan 0
          -1.9921875 nan 0
          -1.989257812 nan 0
          -1.986328125 nan 0
          -1.983398438 nan 0
          -1.98046875 nan 0
          -1.977539062 nan 0
          -1.974609375 nan 0
          -1.971679688 nan 0
          -1.96875 nan 0
          -1.965820312 nan 0
          -1.962890625 nan 0
          -1.959960938 nan 0
          -1.95703125 nan 0
          -1.954101562 nan 0
          -1.951171875 nan 0
          -1.948242188 nan 0
          -1.9453125 nan 0
          -1.942382812 nan 0
          -1.939453125 nan 0
          -1.936523438 nan 0
          -1.93359375 nan 0
          -1.930664062 nan 0
          -1.927734375 nan 0
          -1.924804688 nan 0
          -1.921875 nan 0
          -1.918945312 nan 0
          -1.916015625 nan 0
          -1.913085938 nan 0
          -1.91015625 nan 0
          -1.907226562 nan 0
          -1.904296875 nan 0
          -1.901367188 nan 0
          -1.8984375 nan 0
          -1.895507812 nan 0
          -1.892578125 nan 0
          -1.889648438 nan 0
          -1.88671875 nan 0
          -1.883789062 nan 0
          -1.880859375 nan 0
          -1.877929688 nan 0
          -1.875 nan 0
          -1.872070312 nan 0
          -1.869140625 nan 0
          -1.866210938 nan 0