<VTKFile type='UnstructuredGrid' version='0.1' byte_order='LittleEndian'>
<!-- curve_plot -->
  <UnstructuredGrid>
    <Piece NumberOfPoints='466' NumberOfCells='464'>
      <PointData Scalars='f(x) x'>
        <DataArray Name='f(x)' type='Float64' format='ascii' NumberOfComponents='1'>
          3.2 3.2 3.2 3.2 3.2 3.2 3.2 3.2 3.2 3.2 3.2 3.2 3.2 3.2 3.2 3.2 3.2 3.2 3.2 3.2 3.199317061 3.176888714 3.154371772 3.131764204 3.109063909 3.086268716 3.063376382 3.040384588 3.017290932 2.970788013 2.923846663 2.731219468 2.52941342 2.087155327 1.555857212 1.221397289 0.7670449054 0.6053299412 0.3821665426 0.005964298243 0.1238176703 0.00193774467 0.1953019003 0.2464416826 0.3858446212 0.4831673434 0.7318866682 0.8826906173 0.9810922311 1.0412746 1.058931064 1.068697958 1.069366823 1.069912546 1.070334828 1.070633309 1.070807572 1.070857137 1.070781461 1.070579936 1.07025189 1.069796583 1.069213202 1.068500864 1.066685407 1.064341593 1.02502358 0.9404065462 0.8731020083 0.7781092887 0.7136415608 0.6290880977 0.574080111 0.5036696525 0.4585863439 0.4014548066 0.3192986642 -0 -0.320610998 -0.4047617469 -0.4642647857 -0.512003287 -0.5883914664 -0.6500942719 -0.749729963 -0.8311096335 -0.9643038624 -1.07465604 -1.257601768 -1.41011877 -1.659938193 -1.85860345 -2.017216599 -2.140513052 -2.230761566 -2.289077278 -2.306434461 -2.3159676 -2.317129958 -2.317804093 -2.317989993 -2.317687605 -2.315617542 -2.311592682 -2.2759025 -2.208714498 -2.10976016 -1.978714215 -1.815213642 -1.618870407 -1.389280193 -1.126028518 -0.8286950718 -0.4968568397 -0.3178660675 -0.1300903648 -0.1059980837 -0.08176761115 -0.06960052093 -0.0573988443 -0.04516256839 -0.03289168039 -0.02058616744 -0.008246016703 2.73194574 2.690788863 2.647261029 2.601511637 2.553697709 2.503983354 2.452539205 2.399541831 2.34517313 2.289619711 2.233072246 2.17572482 2.117774263 2.059419476 2.000860747 1.942299063 1.883935423 1.825970145 1.768602181 1.71202843 1.656443069 1.602036879 1.548996597 1.497504269 1.447736629 1.399864493 1.354052169 1.310456897 1.269228306 1.230507902 1.194428585 1.161114186 1.130679049 1.103227635 1.078854163 1.057642291 1.039664821 1.024983457 1.013648589 1.005699121 1.001162338 1.000053811 1.002377345 1.008124964 1.017276942 1.029801867 1.045656749 1.064787172 1.087127475 1.11260098 1.141120257 1.17258742 1.206894465 1.243923644 1.283547862 1.325631119 1.370028976 1.416589048 1.46515153 1.515549743 1.567610708 1.62115574 1.676001057 1.731958419 1.788835765 1.846437879 1.904567055 1.963023781 2.021607418 2.080116893 2.138351388 2.196111026 2.253197564 2.309415065 2.364570577 2.418474794 2.470942703 2.521794221 2.570854813 2.617956092 2.662936393 2.705641334 2.745924341 2.783647152 2.818680294 2.850903525 2.880206245 2.906487882 2.92965823 2.949637763 2.966357906 2.979761271 2.989801856 2.996445197 2.999668494 2.999460684 2.995822479 2.988766367 2.978316566 2.964508943 2.947390888 2.927021155 2.903469658 2.876817232 2.847155354 2.81458583 2.779220448 2.741180591 2.70059682 2.657608428 2.612362963 2.565015718 2.515729201 2.464672574 2.412021077 2.357955422 2.302661177 2.246328124 2.189149613 2.131321894 2.073043445 2.014514294 1.955935326 1.897507599 1.839431651 1.781906813 1.725130525 1.669297655 1.614599838 1.561224808 1.509355763 1.459170729 1.410841953 1.364535313 1.320409743 1.278616694 1.23929961 1.202593436 1.168624157 1.137508363 1.109352853 1.084254262 1.062298736 1.04356163 1.028107256 1.015988655 1.007247424 1.001913562 1.000005379 1.001529422 1.006480461 1.014841504 1.026583851 1.041667202 1.060039787 1.081638545 1.106389345 1.134207237 1.164996741 1.198652182 1.235058045 1.274089377 1.315612212 1.359484033 1.405554263 1.453664776 1.503650446 1.55533971 1.608555156 1.663114138 1.718829394 1.775509697 1.832960506 1.890984635 1.949382932 2.007954959 2.066499682 2.124816163 2.182704243 2.239965238 2.296402613 2.351822662 2.406035169 2.458854064 2.510098059 2.559591272 2.60716383 2.652652454 2.695901014 2.736761071 2.775092383 2.810763388 2.843651654 2.8736443 2.900638385 2.924541258 2.945270878 2.962756097 2.976936901 2.987764617 2.995202083 2.999223771 2.999815878 2.996976372 2.990714998 2.981053247 2.96802428 2.951672817 2.932054978 2.909238099 2.883300491 2.854331179 2.822429593 2.787705227 2.750277263 2.710274163 2.667833229 2.623100126 2.576228391 2.527378899 2.476719313 2.42442351 2.370670981 2.315646218 2.259538079 2.202539143 2.144845042 2.086653797 2.028165136 1.969579805 1.911098883 1.852923092 1.795252105 1.738283863 1.682213895 1.627234646 1.57353482 1.521298728 1.470705655 1.42192925 1.375136926 1.330489286 1.288139571 1.248233135 1.210906947 1.176289121 1.144498473 1.115644115 1.089825084 1.067129997 1.047636749 1.031412245 1.018512171 1.008980805 1.00285086 1.000143376 1.000867644 1.005021181 1.012589728 1.02354731 1.037856318 1.055467638 1.076320826 1.100344307 1.127455627 1.157561733 1.190559294 1.226335055 1.264766223 1.305720895 1.349058502 1.3946303 1.442279876 1.491843684 1.54315161 1.596027551 1.650290024 1.705752788 1.762225481 1.819514274 1.877422539 1.935751519 1.994301016 2.052870074 2.111257668 2.169263398 2.226688176 2.283334903 2.339009156 2.393519846 2.44667988 2.498306798 2.548223405 2.596258375 2.64224684 2.686030956 2.727460446 2.766393113 2.802695331 2.836242501 2.866919482 2.894620982 2.919251924 2.940727767 2.958974802 2.9739304 2.98554323 2.993773434 2.998592763 2.999984677 2.997944398 2.992478929 2.983607029 2.971359148 2.955777324 2.936915038 2.91483703 2.889619076 2.861347732 2.83012003 2.796043153 2.759234061 2.719819091 2.677933525 2.633721125 2.587333638 2.538930279 2.488677178 2.436746817 2.383317434 2.328572412 2.272699649 2.215890913 2.158341187 2.100247995 2.041810727 1.983229954 1.924706741 1.866441952 1.808635568 1.751485993 1.695189379 
        </DataArray>
        <DataArray Name='x' type='Float64' format='ascii' NumberOfComponents='1'>
          -2.90625 -3 -2.8125 -2.765625 -2.71875 -2.6953125 -2.671875 -2.66015625 -2.6484375 -2.642578125 -2.63671875 -2.633789062 -2.630859375 -2.629394531 -2.627929688 -2.626464844 -2.625 -2.623535156 -2.622070312 -2.620605469 -2.619140625 -2.617675781 -2.616210938 -2.614746094 -2.61328125 -2.611816406 -2.610351562 -2.608886719 -2.607421875 -2.604492188 -2.6015625 -2.58984375 -2.578125 -2.5546875 -2.53125 -2.51953125 -2.5078125 -2.504882812 -2.501953125 -2.500000477 -0.498046875 -0.4999995232 -0.4951171875 -0.4921875 -0.48046875 -0.46875 -0.421875 -0.375 -0.328125 -0.28125 -0.2578125 -0.234375 -0.2314453125 -0.228515625 -0.2255859375 -0.22265625 -0.2197265625 -0.216796875 -0.2138671875 -0.2109375 -0.2080078125 -0.205078125 -0.2021484375 -0.19921875 -0.193359375 -0.1875 -0.140625 -0.09375 -0.0703125 -0.046875 -0.03515625 -0.0234375 -0.017578125 -0.01171875 -0.0087890625 -0.005859375 -0.0029296875 0 0.0029296875 0.005859375 0.0087890625 0.01171875 0.017578125 0.0234375 0.03515625 0.046875 0.0703125 0.09375 0.140625 0.1875 0.28125 0.375 0.46875 0.5625 0.65625 0.75 0.796875 0.84375 0.85546875 0.8671875 0.87890625 0.890625 0.9140625 0.9375 1.03125 1.125 1.21875 1.3125 1.40625 1.5 1.59375 1.6875 1.78125 1.875 1.921875 1.96875 1.974609375 1.98046875 1.983398438 1.986328125 1.989257812 1.9921875 1.995117188 1.998046875 2.000976562 2.00390625 2.006835938 2.009765625 2.012695312 2.015625 2.018554688 2.021484375 2.024414062 2.02734375 2.030273438 2.033203125 2.036132812 2.0390625 2.041992188 2.044921875 2.047851562 2.05078125 2.053710938 2.056640625 2.059570312 2.0625 2.065429688 2.068359375 2.071289062 2.07421875 2.077148438 2.080078125 2.083007812 2.0859375 2.088867188 2.091796875 2.094726562 2.09765625 2.100585938 2.103515625 2.106445312 2.109375 2.112304688 2.115234375 2.118164062 2.12109375 2.124023438 2.126953125 2.129882812 2.1328125 2.135742188 2.138671875 2.141601562 2.14453125 2.147460938 2.150390625 2.153320312 2.15625 2.159179688 2.162109375 2.165039062 2.16796875 2.170898438 2.173828125 2.176757812 2.1796875 2.182617188 2.185546875 2.188476562 2.19140625 2.194335938 2.197265625 2.200195312 2.203125 2.206054688 2.208984375 2.211914062 2.21484375 2.217773438 2.220703125 2.223632812 2.2265625 2.229492188 2.232421875 2.235351562 2.23828125 2.241210938 2.244140625 2.247070312 2.25 2.252929688 2.255859375 2.258789062 2.26171875 2.264648438 2.267578125 2.270507812 2.2734375 2.276367188 2.279296875 2.282226562 2.28515625 2.288085938 2.291015625 2.293945312 2.296875 2.299804688 2.302734375 2.305664062 2.30859375 2.311523438 2.314453125 2.317382812 2.3203125 2.323242188 2.326171875 2.329101562 2.33203125 2.334960938 2.337890625 2.340820312 2.34375 2.346679688 2.349609375 2.352539062 2.35546875 2.358398438 2.361328125 2.364257812 2.3671875 2.370117188 2.373046875 2.375976562 2.37890625 2.381835938 2.384765625 2.387695312 2.390625 2.393554688 2.396484375 2.399414062 2.40234375 2.405273438 2.408203125 2.411132812 2.4140625 2.416992188 2.419921875 2.422851562 2.42578125 2.428710938 2.431640625 2.434570312 2.4375 2.440429688 2.443359375 2.446289062 2.44921875 2.452148438 2.455078125 2.458007812 2.4609375 2.463867188 2.466796875 2.469726562 2.47265625 2.475585938 2.478515625 2.481445312 2.484375 2.487304688 2.490234375 2.493164062 2.49609375 2.499023438 2.501953125 2.504882812 2.5078125 2.510742188 2.513671875 2.516601562 2.51953125 2.522460938 2.525390625 2.528320312 2.53125 2.534179688 2.537109375 2.540039062 2.54296875 2.545898438 2.548828125 2.551757812 2.5546875 2.557617188 2.560546875 2.563476562 2.56640625 2.569335938 2.572265625 2.575195312 2.578125 2.581054688 2.583984375 2.586914062 2.58984375 2.592773438 2.595703125 2.598632812 2.6015625 2.604492188 2.607421875 2.610351562 2.61328125 2.616210938 2.619140625 2.622070312 2.625 2.627929688 2.630859375 2.633789062 2.63671875 2.639648438 2.642578125 2.645507812 2.6484375 2.651367188 2.654296875 2.657226562 2.66015625 2.663085938 2.666015625 2.668945312 2.671875 2.674804688 2.677734375 2.680664062 2.68359375 2.686523438 2.689453125 2.692382812 2.6953125 2.698242188 2.701171875 2.704101562 2.70703125 2.709960938 2.712890625 2.715820312 2.71875 2.721679688 2.724609375 2.727539062 2.73046875 2.733398438 2.736328125 2.739257812 2.7421875 2.745117188 2.748046875 2.750976562 2.75390625 2.756835938 2.759765625 2.762695312 2.765625 2.768554688 2.771484375 2.774414062 2.77734375 2.780273438 2.783203125 2.786132812 2.7890625 2.791992188 2.794921875 2.797851562 2.80078125 2.803710938 2.806640625 2.809570312 2.8125 2.815429688 2.818359375 2.821289062 2.82421875 2.827148438 2.830078125 2.833007812 2.8359375 2.838867188 2.841796875 2.844726562 2.84765625 2.850585938 2.853515625 2.856445312 2.859375 2.862304688 2.865234375 2.868164062 2.87109375 2.874023438 2.876953125 2.879882812 2.8828125 2.885742188 2.888671875 2.891601562 2.89453125 2.897460938 2.900390625 2.903320312 2.90625 2.909179688 2.912109375 2.915039062 2.91796875 2.920898438 2.923828125 2.926757812 2.9296875 2.932617188 2.935546875 2.938476562 2.94140625 2.944335938 2.947265625 2.950195312 2.953125 2.956054688 2.958984375 2.961914062 2.96484375 2.967773438 2.970703125 2.973632812 2.9765625 2.979492188 2.982421875 2.985351562 2.98828125 2.991210938 2.994140625 2.997070312 3 
        </DataArray>
      </PointData>
      <Points>
        <DataArray Name='Points' type='Float64' format='ascii' NumberOfComponents='3'>
          -2.90625 3.2 0
          -3 3.2 0
          -2.8125 3.2 0
          -2.765625 3.2 0
          -2.71875 3.2 0
          -2.6953125 3.2 0
          -2.671875 3.2 0
          -2.66015625 3.2 0
          -2.6484375 3.2 0
          -2.642578125 3.2 0
          -2.63671875 3.2 0
          -2.633789062 3.2 0
          -2.630859375 3.2 0
          -2.629394531 3.2 0
          -2.627929688 3.2 0
          -2.626464844 3.2 0
          -2.625 3.2 0
          -2.623535156 3.2 0
          -2.622070312 3.2 0
          -2.620605469 3.2 0
          -2.619140625 3.199317061 0
          -2.617675781 3.176888714 0
          -2.616210938 3.154371772 0
          -2.614746094 3.131764204 0
          -2.61328125 3.109063909 0
          -2.611816406 3.086268716 0
          -2.610351562 3.063376382 0
          -2.608886719 3.040384588 0
          -2.607421875 3.017290932 0
          -2.604492188 2.970788013 0
          -2.6015625 2.923846663 0
          -2.58984375 2.731219468 0
          -2.578125 2.52941342 0
          -2.5546875 2.087155327 0
          -2.53125 1.555857212 0
          -2.51953125 1.221397289 0
          -2.5078125 0.7670449054 0
          -2.504882812 0.6053299412 0
          -2.501953125 0.3821665426 0
          -2.500000477 0.005964298243 0
          -0.498046875 0.1238176703 0
          -0.4999995232 0.00193774467 0
          -0.4951171875 0.1953019003 0
          -0.4921875 0.2464416826 0
          -0.48046875 0.3858446212 0
          -0.46875 0.4831673434 0
          -0.421875 0.7318866682 0
          -0.375 0.8826906173 0
          -0.328125 0.9810922311 0
          -0.28125 1.0412746 0
          -0.2578125 1.058931064 0
          -0.234375 1.068697958 0
          -0.2314453125 1.069366823 0
          -0.228515625 1.069912546 0
          -0.2255859375 1.070334828 0
          -0.22265625 1.070633309 0
          -0.2197265625 1.070807572 0
          -0.216796875 1.070857137 0
          -0.2138671875 1.070781461 0
          -0.2109375 1.070579936 0
          -0.2080078125 1.07025189 0
          -0.205078125 1.069796583 0
          -0.2021484375 1.069213202 0
          -0.19921875 1.068500864 0
          -0.193359375 1.066685407 0
          -0.1875 1.064341593 0
          -0.140625 1.02502358 0
          -0.09375 0.9404065462 0
          -0.0703125 0.8731020083 0
          -0.046875 0.7781092887 0
          -0.03515625 0.7136415608 0
          -0.0234375 0.6290880977 0
          -0.017578125 0.574080111 0
          -0.01171875 0.5036696525 0
          -0.0087890625 0.4585863439 0
          -0.005859375 0.4014548066 0
          -0.0029296875 0.3192986642 0
          0 -0 0
          0.0029296875 -0.320610998 0
          0.005859375 -0.4047617469 0
          0.0087890625 -0.4642647857 0
          0.01171875 -0.512003287 0
          0.017578125 -0.5883914664 0
          0.0234375 -0.6500942719 0
          0.03515625 -0.749729963 0
          0.046875 -0.8311096335 0
          0.0703125 -0.9643038624 0
          0.09375 -1.07465604 0
          0.140625 -1.257601768 0
          0.1875 -1.41011877 0
          0.28125 -1.659938193 0
          0.375 -1.85860345 0
          0.46875 -2.017216599 0
          0.5625 -2.140513052 0
          0.65625 -2.230761566 0
          0.75 -2.289077278 0
          0.796875 -2.306434461 0
          0.84375 -2.3159676 0
          0.85546875 -2.317129958 0
          0.8671875 -2.317804093 0
          0.87890625 -2.317989993 0
          0.890625 -2.317687605 0
          0.9140625 -2.315617542 0
          0.9375 -2.311592682 0
          1.03125 -2.2759025 0
          1.125 -2.208714498 0
          1.21875 -2.10976016 0
          1.3125 -1.978714215 0
          1.40625 -1.815213642 0
          1.5 -1.618870407 0
          1.59375 -1.389280193 0
          1.6875 -1.126028518 0
          1.78125 -0.8286950718 0
          1.875 -0.4968568397 0
          1.921875 -0.3178660675 0
          1.96875 -0.1300903648 0
          1.974609375 -0.1059980837 0
          1.98046875 -0.08176761115 0
          1.983398438 -0.06960052093 0
          1.986328125 -0.0573988443 0
          1.989257812 -0.04516256839 0
          1.9921875 -0.03289168039 0
          1.995117188 -0.02058616744 0
          1.998046875 -0.008246016703 0
          2.000976562 2.73194574 0
          2.00390625 2.690788863 0
          2.006835938 2.647261029 0
          2.009765625 2.601511637 0
          2.012695312 2.553697709 0
          2.015625 2.503983354 0
          2.018554688 2.452539205 0
          2.021484375 2.399541831 0
          2.024414062 2.34517313 0
          2.02734375 2.289619711 0
          2.030273438 2.233072246 0
          2.033203125 2.17572482 0
          2.036132812 2.117774263 0
          2.0390625 2.059419476 0
          2.041992188 2.000860747 0
          2.044921875 1.942299063 0
          2.047851562 1.883935423 0
          2.05078125 1.825970145 0
          2.053710938 1.768602181 0
          2.056640625 1.71202843 0
          2.059570312 1.656443069 0
          2.0625 1.602036879 0
          2.065429688 1.548996597 0
          2.068359375 1.497504269 0
          2.071289062 1.447736629 0
          2.07421875 1.399864493 0
          2.077148438 1.354052169 0
          2.080078125 1.310456897 0
          2.083007812 1.269228306 0
          2.0859375 1.230507902 0
          2.088867188 1.194428585 0
          2.091796875 1.161114186 0
          2.094726562 1.130679049 0
          2.09765625 1.103227635 0
          2.100585938 1.078854163 0
          2.103515625 1.057642291 0
          2.106445312 1.039664821 0
          2.109375 1.024983457 0
          2.112304688 1.013648589 0
          2.115234375 1.005699121 0
          2.118164062 1.001162338 0
          2.12109375 1.000053811 0
          2.124023438 1.002377345 0
          2.126953125 1.008124964 0
          2.129882812 1.017276942 0
          2.1328125 1.029801867 0
          2.135742188 1.045656749 0
          2.138671875 1.064787172 0
          2.141601562 1.087127475 0
          2.14453125 1.11260098 0
          2.147460938 1.141120257 0
          2.150390625 1.17258742 0
          2.153320312 1.206894465 0
          2.15625 1.243923644 0
          2.159179688 1.283547862 0
          2.162109375 1.325631119 0
          2.165039062 1.370028976 0
          2.16796875 1.416589048 0
          2.170898438 1.46515153 0
          2.173828125 1.515549743 0
          2.176757812 1.567610708 0
          2.1796875 1.62115574 0
          2.182617188 1.676001057 0
          2.185546875 1.731958419 0
          2.188476562 1.788835765 0
          2.19140625 1.846437879 0
          2.194335938 1.904567055 0
          2.197265625 1.963023781 0
          2.200195312 2.021607418 0
          2.203125 2.080116893 0
          2.206054688 2.138351388 0
          2.208984375 2.196111026 0
          2.211914062 2.253197564 0
          2.21484375 2.309415065 0
          2.217773438 2.364570577 0
          2.220703125 2.418474794 0
          2.223632812 2.470942703 0
          2.2265625 2.521794221 0
          2.229492188 2.570854813 0
          2.232421875 2.617956092 0
          2.235351562 2.662936393 0
          2.23828125 2.705641334 0
          2.241210938 2.745924341 0
          2.244140625 2.783647152 0
          2.247070312 2.818680294 0
          2.25 2.850903525 0
          2.252929688 2.880206245 0
          2.255859375 2.906487882 0
          2.258789062 2.92965823 0
          2.26171875 2.949637763 0
          2.264648438 2.966357906 0
          2.267578125 2.979761271 0
          2.270507812 2.989801856 0
          2.2734375 2.996445197 0
          2.276367188 2.999668494 0
          2.279296875 2.999460684 0
          2.282226562 2.995822479 0
          2.28515625 2.988766367 0
          2.288085938 2.978316566 0
          2.291015625 2.964508943 0
          2.293945312 2.947390888 0
          2.296875 2.927021155 0
          2.299804688 2.903469658 0
          2.302734375 2.876817232 0
          2.305664062 2.847155354 0
          2.30859375 2.81458583 0
          2.311523438 2.779220448 0
          2.314453125 2.741180591 0
          2.317382812 2.70059682 0
          2.3203125 2.657608428 0
          2.323242188 2.612362963 0
          2.326171875 2.565015718 0
          2.329101562 2.515729201 0
          2.33203125 2.464672574 0
          2.334960938 2.412021077 0
          2.337890625 2.357955422 0
          2.340820312 2.302661177 0
          2.34375 2.246328124 0
          2.346679688 2.189149613 0
          2.349609375 2.131321894 0
          2.352539062 2.073043445 0
          2.35546875 2.014514294 0
          2.358398438 1.955935326 0
          2.361328125 1.897507599 0
          2.364257812 1.839431651 0
          2.3671875 1.781906813 0
          2.370117188 1.725130525 0
          2.373046875 1.669297655 0
          2.375976562 1.614599838 0
          2.37890625 1.561224808 0
          2.381835938 1.509355763 0
          2.384765625 1.459170729 0
          2.387695312 1.410841953 0
          2.390625 1.364535313 0
          2.393554688 1.320409743 0
          2.396484375 1.278616694 0
          2.399414062 1.23929961 0
          2.40234375 1.202593436 0
          2.405273438 1.168624157 0
          2.408203125 1.137508363 0
          2.411132812 1.109352853 0
          2.4140625 1.084254262 0
          2.416992188 1.062298736 0
          2.419921875 1.04356163 0
          2.422851562 1.028107256 0
          2.42578125 1.015988655 0
          2.428710938 1.007247424 0
          2.431640625 1.001913562 0
          2.434570312 1.000005379 0
          2.4375 1.001529422 0
          2.440429688 1.006480461 0
          2.443359375 1.014841504 0
          2.446289062 1.026583851 0
          2.44921875 1.041667202 0
          2.452148438 1.060039787 0
          2.455078125 1.081638545 0
          2.458007812 1.106389345 0
          2.4609375 1.134207237 0
          2.463867188 1.164996741 0
          2.466796875 1.198652182 0
          2.469726562 1.235058045 0
          2.47265625 1.274089377 0
          2.475585938 1.315612212 0
          2.478515625 1.359484033 0
          2.481445312 1.405554263 0
          2.484375 1.453664776 0
          2.487304688 1.503650446 0
          2.490234375 1.55533971 0
          2.493164062 1.608555156 0
          2.49609375 1.663114138 0
          2.499023438 1.718829394 0
          2.501953125 1.775509697 0
          2.504882812 1.832960506 0
          2.5078125 1.890984635 0
          2.510742188 1.949382932 0
          2.513671875 2.007954959 0
          2.516601562 2.066499682 0
          2.51953125 2.124816163 0
          2.522460938 2.182704243 0
          2.525390625 2.239965238 0
          2.528320312 2.296402613 0
          2.53125 2.351822662 0
          2.534179688 2.406035169 0
          2.537109375 2.458854064 0
          2.540039062 2.510098059 0
          2.54296875 2.559591272 0
          2.545898438 2.60716383 0
          2.548828125 2.652652454 0
          2.551757812 2.695901014 0
          2.5546875 2.736761071 0
          2.557617188 2.775092383 0
          2.560546875 2.810763388 0
          2.563476562 2.843651654 0
          2.56640625 2.8736443 0
          2.569335938 2.900638385 0
          2.572265625 2.924541258 0
          2.575195312 2.945270878 0
          2.578125 2.962756097 0
          2.581054688 2.976936901 0
          2.583984375 2.987764617 0
          2.586914062 2.995202083 0
          2.58984375 2.999223771 0
          2.592773438 2.999815878 0
          2.595703125 2.996976372 0
          2.598632812 2.990714998 0
          2.6015625 2.981053247 0
          2.604492188 2.96802428 0
          2.607421875 2.951672817 0
          2.610351562 2.932054978 0
          2.61328125 2.909238099 0
          2.616210938 2.883300491 0
          2.619140625 2.854331179 0
          2.622070312 2.822429593 0
          2.625 2.787705227 0
          2.627929688 2.750277263 0
          2.630859375 2.710274163 0
          2.633789062 2.667833229 0
          2.63671875 2.623100126 0
          2.639648438 2.576228391 0
          2.642578125 2.527378899 0
          2.645507812 2.476719313 0
          2.6484375 2.42442351 0
          2.651367188 2.370670981 0
          2.654296875 2.315646218 0
          2.657226562 2.259538079 0
          2.66015625 2.202539143 0
          2.663085938 2.144845042 0
          2.666015625 2.086653797 0
          2.668945312 2.028165136 0
          2.671875 1.969579805 0
          2.674804688 1.911098883 0
          2.677734375 1.852923092 0
          2.680664062 1.795252105 0
          2.68359375 1.738283863 0
          2.686523438 1.682213895 0
          2.689453125 1.627234646 0
          2.692382812 1.57353482 0
          2.6953125 1.521298728 0
          2.698242188 1.470705655 0
          2.701171875 1.42192925 0
          2.704101562 1.375136926 0
          2.70703125 1.330489286 0
          2.709960938 1.288139571 0
          2.712890625 1.248233135 0
          2.715820312 1.210906947 0
          2.71875 1.176289121 0
          2.721679688 1.144498473 0
          2.724609375 1.115644115 0
          2.727539062 1.089825084 0
          2.73046875 1.067129997 0
          2.733398438 1.047636749 0
          2.736328125 1.031412245 0
          2.739257812 1.018512171 0
          2.7421875 1.008980805 0
          2.745117188 1.00285086 0
          2.748046875 1.000143376 0
          2.750976562 1.000867644 0
          2.75390625 1.005021181 0
          2.756835938 1.012589728 0
          2.759765625 1.02354731 0
          2.762695312 1.037856318 0
          2.765625 1.055467638 0
          2.768554688 1.076320826 0
          2.771484375 1.100344307 0
          2.774414062 1.127455627 0
          2.77734375 1.157561733 0
          2.780273438 1.190559294 0
          2.783203125 1.226335055 0
          2.786132812 1.264766223 0
          2.7890625 1.305720895 0
          2.791992188 1.349058502 0
          2.794921875 1.3946303 0
          2.797851562 1.442279876 0
          2.80078125 1.491843684 0
          2.803710938 1.54315161 0
          2.806640625 1.596027551 0
          2.809570312 1.650290024 0
          2.8125 1.705752788 0
          2.815429688 1.762225481 0
          2.818359375 1.819514274 0
          2.821289062 1.877422539 0
          2.82421875 1.935751519 0
          2.827148438 1.994301016 0
          2.830078125 2.052870074 0
          2.833007812 2.111257668 0
          2.8359375 2.169263398 0
          2.838867188 2.226688176 0
          2.841796875 2.283334903 0
          2.844726562 2.339009156 0
          2.84765625 2.393519846 0
          2.850585938 2.44667988 0
          2.853515625 2.498306798 0
          2.856445312 2.548223405 0
          2.859375 2.596258375 0
          2.862304688 2.64224684 0
          2.865234375 2.686030956 0
          2.868164062 2.727460446 0
          2.87109375 2.766393113 0
          2.874023438 2.802695331 0
          2.876953125 2.836242501 0
          2.879882812 2.866919482 0
          2.8828125 2.894620982 0
          2.885742188 2.919251924 0
          2.888671875 2.940727767 0
          2.891601562 2.958974802 0
          2.89453125 2.9739304 0
          2.897460938 2.98554323 0
          2.900390625 2.993773434 0
          2.903320312 2.998592763 0
          2.90625 2.999984677 0
          2.909179688 2.997944398 0
          2.912109375 2.992478929 0
          2.915039062 2.983607029 0
          2.91796875 2.971359148 0
          2.920898438 2.955777324 0
          2.923828125 2.936915038 0
          2.926757812 2.91483703 0
          2.9296875 2.889619076 0
          2.932617188 2.861347732 0
          2.935546875 2.83012003 0
          2.938476562 2.796043153 0
          2.94140625 2.759234061 0
          2.944335938 2.719819091 0
          2.947265625 2.677933525 0
          2.950195312 2.633721125 0
          2.953125 2.587333638 0
          2.956054688 2.538930279 0
          2.958984375 2.488677178 0
          2.961914062 2.436746817 0
          2.96484375 2.383317434 0
          2.967773438 2.328572412 0
          2.970703125 2.272699649 0
          2.973632812 2.215890913 0
          2.9765625 2.158341187 0
          2.979492188 2.100247995 0
          2.982421875 2.041810727 0
          2.985351562 1.983229954 0
          2.98828125 1.924706741 0
          2.991210938 1.866441952 0
          2.994140625 1.808635568 0
          2.997070312 1.751485993 0
          3 1.695189379 0
        </DataArray>
      </Points>
      <Cells>
        <DataArray type='Int32' Name='connectivity' format='ascii'>
          1 0 
          0 2 
          2 3 
          3 4 
          4 5 
          5 6 
          6 7 
          7 8 
          8 9 
          9 10 
          10 11 
          11 12 
          12 13 
          13 14 
          14 15 
          15 16 
          16 17 
          17 18 
          18 19 
          19 20 
          20 21 
          21 22 
          22 23 
          23 24 
          24 25 
          25 26 
          26 27 
          27 28 
          28 29 
          29 30 
          30 31 
          31 32 
          32 33 
          33 34 
          34 35 
          35 36 
          36 37 
          37 38 
          38 39 
          41 40 
          40 42 
          42 43 
          43 44 
          44 45 
          45 46 
          46 47 
          47 48 
          48 49 
          49 50 
          50 51 
          51 52 
          52 53 
          53 54 
          54 55 
          55 56 
          56 57 
          57 58 
          58 59 
          59 60 
          60 61 
          61 62 
          62 63 
          63 64 
          64 65 
          65 66 
          66 67 
          67 68 
          68 69 
          69 70 
          70 71 
          71 72 
          72 73 
          73 74 
          74 75 
          75 76 
          76 77 
          77 78 
          78 79 
          79 80 
          80 81 
          81 82 
          82 83 
          83 84 
          84 85 
          85 86 
          86 87 
          87 88 
          88 89 
          89 90 
          90 91 
          91 92 
          92 93 
          93 94 
          94 95 
          95 96 
          96 97 
          97 98 
          98 99 
          99 100 
          100 101 
          101 102 
          102 103 
          103 104 
          104 105 
          105 106 
          106 107 
          107 108 
          108 109 
          109 110 
          110 111 
          111 112 
          112 113 
          113 114 
          114 115 
          115 116 
          116 117 
          117 118 
          118 119 
          119 120 
          120 121 
          121 122 
          122 123 
          123 124 
          124 125 
          125 126 
          126 127 
          127 128 
          128 129 
          129 130 
          130 131 
          131 132 