<VTKFile type='UnstructuredGrid' version='0.1' byte_order='LittleEndian'>
<!-- implicit_curve_2d -->
  <UnstructuredGrid>
    <Piece NumberOfPoints='2951' NumberOfCells='5856'>
      <PointData Scalars='f(x,y) x y' >
        <DataArray Name='f(x,y)' type='Float64' format='ascii' NumberOfComponents='1'>
          -1 -1 -1 -1 -1 -1 -1 -1 -1 -1 -1 -1 -1 -1 -0.7484101496 -1 -1 -1 -1 -1 -1 -0.8646489496 -0.4538487437 -0.3240986766 -0.2051953755 -0.5757432644 -0.380085223 -1 -0.7470993532 -0.5012074585 -0.6552984342 -0.4480084063 -0.3306219429 -0.4125646505 -0.2622165875 -0.2322738921 -0.0965373412 -0.2950043475 -0.1543471092 -0.1240778144 0.00245444914 -0.4103035822 -0.2230138418 -0.1246356824 -0.3024561532 -0.1873297246 -0.05591343605 -0.02542960479 0.0923369739 -0.08898498772 0.03362617183 0.06422000347 0.1736455994 -1 -1 -0.6883236383 -0.753020488 -0.8895117188 -0.51316885 -0.1961649957 -0.4074623593 -0.293653028 -0.6884780443 -0.3661169272 -0.224696805 -0.0954598945 -0.3830259762 -0.2301467828 -0.3791706874 -0.2557389463 -0.1170584673 -0.2330097766 -0.27274509 -0.1490189287 -0.1706364013 -0.05797326796 -0.1311958433 -0.01717531862 -0.03572909626 0.06766163565 -0.2270947025 -0.09944485291 -0.1065059192 0.009292717004 -0.09578919715 0.02221718514 0.01740343116 0.1240031757 -0.002202055823 0.1025872163 0.08686376855 0.1814452108 0.1149351716 0.2109530199 0.1978370206 0.2840578833 -0.592614349 -0.6913758087 -0.3400218828 -0.4390881554 -0.558067627 -0.2263028131 -0.2761451663 -0.2594643384 -0.1863409837 -0.04628001617 -0.1140131466 -0.2289784686 -0.1274121736 -0.1745520034 -0.0818842201 -0.08470952979 0.007884208739 -0.03482566978 0.04926169011 -0.3443827996 -0.4832471466 -0.165848282 -0.1897591973 -0.3028110447 -0.46171875 -0.1536083456 -0.1539736182 -0.1334668934 -0.04903205508 -0.1050273435 -0.02819923022 0.002335206818 0.07856693862 0.02745882163 0.09644681367 -0.08860666326 -0.01879791706 -0.08364726601 -0.020308907 0.04116276073 0.1034805234 0.04399647464 0.1001796247 -0.08402582801 0.01836871994 -0.01196905382 0.08091103628 0.04486971228 0.1384086478 0.1115309512 0.1959562558 0.04641107071 0.1304909997 0.09192452799 0.167879246 0.1651187911 0.2411292837 0.2064312039 0.2746868414 0.2468085212 0.3923784453 0.3404946432 0.4556186476 0.309663415 0.3056445727 0.468370958 -0.4119077669 -0.2488135823 -0.1260559522 -0.280249853 -0.2378582565 -0.104497624 -0.09838464072 0.02226710697 -0.1137392642 0.01000252293 0.01764315455 0.1291332965 -0.3006416987 -0.1597283242 -0.1413997887 -0.01411716301 -0.1810042975 -0.04972483903 -0.03050456975 0.08761536673 -0.0006004421032 0.1139841278 0.1229851058 0.2257639978 0.1021796431 0.2080543193 0.2182573468 0.3127611937 0.02381400536 0.1326448011 0.1298793789 0.2277368403 0.1323735929 0.2324822529 0.2315759263 0.3211334367 0.3085817985 0.4583694658 0.3223500253 0.4793558939 0.4741465099 0.5955548133 -0.07174513355 0.05035603508 0.0703297087 0.1797313098 0.02772292852 0.1410872541 0.1616842686 0.2627978624 0.2927973173 0.4601488879 0.2230197298 0.4039417915 0.4365266617 0.5756618449 0.6033206685 0.7765270691 0.7045944799 0.789831309 -1 -0.9773805747 -0.7541055897 -0.5627659864 -0.7166847346 -0.3926432277 -0.2929655255 -0.2016738924 -0.1182877518 -0.5026028319 -0.2998600834 -0.3462067737 -0.2036560246 -0.1628601616 -0.03496022404 -0.2470235682 -0.113389716 -0.07294479421 0.04651902638 0.0005642609623 0.1147922746 0.1453988812 0.246894512 0.08183145564 0.1880846846 0.2186139355 0.3125771506 -0.1562977504 -0.03116406217 0.008854775202 0.1202882465 -0.07354254202 0.04349421889 0.08301818413 0.1868137308 0.2539828991 0.4231162165 -0.6230743065 -0.4080230165 -0.3211341303 -0.3526889446 -0.2149153028 -0.1654085495 -0.04234597829 -0.2668196281 -0.1373101823 -0.08868179992 0.0265935351 -0.4370474606 -0.2414971432 -0.1686911793 -0.1882440575 -0.06661360017 -0.01890833916 0.08895430886 -0.1165363264 -0.002412588716 0.04432998445 0.1451417093 0.001709168391 0.1110389583 0.150005403 0.2465423231 0.06990525745 0.1719049687 0.2102571676 0.2999018483 0.3654157465 0.5088117807 0.226508476 0.3891324978 0.4525369114 0.5729085283 -1 -0.399930883 -0.3282063888 -0.2624460326 -0.2022964885 -0.1474199912 -0.09749390406 -0.05221028646 -0.8066949463 -0.3886745834 -0.210888021 -0.2797572603 -0.1023130846 -0.04197699488 -0.2108706233 -0.0512884664 0.0556880978 0.1014333846 0.1955433809 0.007889985157 0.1080664154 0.152784569 0.2405296784 -0.2684339701 -0.1479810466 -0.09392880067 0.01268609677 -0.2041487425 -0.09072773343 -0.03800873831 0.06202877203 0.06137241733 0.1550834628 0.1987491721 0.280454099 0.1095155779 0.1970839134 0.2396761867 0.3156537149 0.4575643317 0.647845814 -0.1454857268 -0.03876587985 0.01260678861 0.1063876196 -0.09210373087 0.008233757284 0.05825060364 0.1460836675 0.2343964477 0.3731472885 -0.04367690717 0.05058529267 0.09924018574 0.1814228152 0.0001056795247 0.08858814478 0.1358781015 0.2126962662 0.2961951178 0.4153948975 0.5428968199 0.6683251953 0.8713752489 0.7757494097 0.6142301432 -1 -1 -1 -1 -0.8589545625 -0.6359443054 -0.4551429094 -0.3767575875 -0.3045315237 -0.2371663798 -0.1734191446 -0.1120883022 -0.08196149694 -0.052 -1 -1 -1 -1 -1 -0.6484453125 -0.2936023763 -0.1601529236 -0.1030944017 -1 -0.6621341615 -0.5374830392 -0.5213790257 -0.3320093318 -0.2799970706 -0.270480456 -0.1623878633 -0.1063723013 -0.01127546186 -0.2202620127 -0.1182435819 -0.06386813646 0.02559041455 -0.4050440363 -0.2323533896 -0.1888068458 -0.1744051797 -0.07817990249 -0.02543805201 0.05865378809 -0.1326366906 -0.04193451804 0.009182235862 0.08816813681 -0.8240449595 -0.4304657706 -0.3390001917 -0.3062637887 -0.1490985313 -0.112981641 -0.09469603048 -0.009257656518 0.04024425982 0.1143744037 -0.06033500305 0.02008835133 0.0679872336 0.1375014292 -0.2229390233 -0.0802210402 -0.05059283257 -0.1864678647 -0.02931729879 0.04632950423 0.09263848432 0.1577663828 -0.001418062548 0.06968056262 0.1144138847 0.1753751961 0.03954048434 0.1225274681 0.1684524375 0.2401809596 0.07490991453 0.1526745853 0.1972372322 0.2641400031 0.3428054832 0.4445459003 0.1792874198 0.3024670056 0.3763253301 0.4625283477 0.5750848069 0.6507602522 0.3295219245 0.4716762304 0.5695515526 0.6080236387 -0.5885412812 -0.2984981553 -0.2611839509 -0.2268456111 -0.1952806776 -0.2417725865 -0.1531572093 -0.1011792267 -0.02388392782 -0.2065020276 -0.1227948978 -0.07268217892 0.0001083905203 0.02357653863 0.09034548086 0.1335182851 0.1905229945 0.04586974778 0.1085178396 0.1501459463 0.2033945295 -0.1741938476 -0.0951787124 -0.04691668532 0.02157689737 -0.1446458009 -0.07011594476 -0.02369009661 0.04070485833 0.1243812777 0.2229985402 -0.4085495897 -0.1662957695 -0.1397061505 -0.1153352968 -0.09301446533 -0.117664935 -0.04742296353 -0.002819056704 0.05766646192 -0.09306715875 -0.02692478219 0.0158709295 0.0726272518 0.149868834 0.23547419 -0.07067680931 -0.008454626842 0.0325459284 0.08574455906 -0.0503262205 0.008146496058 0.04736400991 0.09716793442 0.1680948558 0.2419701233 0.4543624002 0.4834770813 0.5913788176 0.2613701477 -0.2706148246 -0.07258226079 -0.0538842039 -0.03677229899 -0.02110460177 -0.2137708107 -0.1117204866 -0.03185529038 0.02303023195 0.06047567972 0.1070395805 -0.01511104896 0.03634131039 0.07202431153 0.115494784 0.1802146475 0.2435104986 5.277398732e-05 0.04821797732 0.08214657926 0.1226623481 0.01377618117 0.05879242728 0.09097288937 0.1286650245 0.1872659438 0.2410088208 -0.2953135792 -0.1878053187 -0.1632736964 -0.1496692482 -0.0918497118 -0.05634289893 -0.006744787092 -0.1275282552 -0.0732822202 -0.03993490105 0.006438283284 -0.2345041401 -0.14002914 -0.1179291681 -0.1066839735 -0.05588157154 -0.02470015688 0.01857099294 -0.08699703481 -0.03951564801 -0.01050950809 0.02977540302 0.02619334004 0.06819123568 0.09862781301 0.1336199457 0.03743301503 0.07653579103 0.1052305183 0.1376390575 0.1901827412 0.2352817723 0.08394272714 0.1432942944 0.18980913 0.2270630452 0.3736091624 0.343667634 -0.1787301017 -0.0968351894 -0.07661207073 -0.06833217688 -0.02405622196 0.0027620973 0.04016968453 -0.05055781167 -0.009378523686 0.01523603725 0.0498685505 -0.1268103377 -0.05712770445 -0.03825257644 -0.03354559293 0.004639190819 0.0270304479 0.05898368828 -0.01716998399 0.01811607212 0.03826065581 0.06762419179 0.1464389875 0.2057533617 -0.07761213275 -0.01985933377 -0.001822352473 -0.05368947487 -0.001307825494 0.03116910956 0.0490396102 0.07589699371 0.01416209682 0.04391356353 0.05947831523 0.08390729776 -0.06861502451 -0.03003735084 -0.01661523338 0.01598269468 -0.04189905891 -0.006521627426 0.003959943491 0.03367927043 0.02935948435 0.05646339769 0.06968626217 0.09175901095 0.04440295793 0.0689317112 0.07977186174 0.09955517578 0.1481669499 0.1818151042 0.2673126645 0.20925 0.2672060709 0.07466666667 0.1474921875 -0.3098145661 -0.4894312286 -0.1856464749 -0.1642951924 -0.3619639507 -0.5634777832 -0.2591395555 -0.2173440982 -0.08966066936 -0.03228161126 -0.106227495 -0.05433406093 0.03644127832 0.0869880231 0.01891035116 0.06428197297 -0.1329974689 -0.08615290695 -0.1696894209 -0.1274934201 -0.008251262996 0.03237007735 -0.04476665587 -0.00850671199 -0.3723778876 -0.8446679688 -0.2592115655 -0.05817509454 -0.1165294211 -0.1835316936 0.1942491897 0.1709362566 0.2663374853 0.1041855026 0.1389589423 0.06786495085 0.09855442118 0.2050341269 0.2343218411 0.1689263096 0.1943978972 0.3755587949 0.42608848 0.3191414245 0.3551364698 0.02294505938 0.04989318474 -0.03043585927 -0.006920958018 0.1247458857 0.1467333363 0.07262884316 0.09143012702 -0.0922066595 -0.07185088086 -0.1623633627 -0.1449261402 0.01264497154 0.02852452395 -0.05520213796 -0.04201293253 0.2330278472 0.1792066997 0.2570665557 0.1065623028 0.1182780719 0.04096778672 0.05021260108 0.1902159153 0.1980682441 0.1268178312 0.132409934 -0.7168185818 -1 -0.6516679071 -0.4370609769 -1 -1 -1 -0.2262429753 -0.2064298147 -0.1202774161 -0.4143197426 -0.4033704787 -0.03204795446 -0.02508382106 -0.1126121766 -0.1077700484 0.05648482274 0.05999858264 -0.02090881627 -0.01932262993 -0.1980696802 -0.1996408027 -0.1057743005 -0.6354363096 -0.657174798 -0.4110746822 0.5703725256 0.205213902 0.2692351351 0.3732534827 0.5001794128 0.1352709508 0.1356059299 0.06095654773 0.05955018172 0.20493372 0.2023501502 0.1336086582 0.1294619222 -0.02013609699 -0.02317093678 -0.1082577252 -0.1128378282 0.05596000583 0.05035585956 -0.02825949225 -0.03524446918 0.2608193995 0.1910023538 0.2447378977 0.1233377683 0.115397764 0.04289716144 0.03373316981 0.1825761463 0.1725231108 0.1057932584 0.09466564313 -0.2097937035 -0.2273428498 -0.1276773353 -0.4272592918 -0.4502814677 -0.04397867545 -0.05432476027 -0.1376562215 -0.149170229 0.02300324354 0.01083710283 -0.06615495343 -0.07935080454 -0.2512583105 -0.2806574117 -0.1763462761 0.3309458954 0.1481005963 0.1945631984 0.2685622355 0.08214661292 0.06835842653 -0.002644910047 -0.01733156999 0.1339890111 0.1187669067 0.05341416738 0.0374180044 -0.09380292223 -0.1094107135 -0.1918018915 -0.2083792582 -0.03312050832 -0.04991795199 -0.1260821227 -0.1437333713 0.1625681951 0.0854064041 0.1271205025 0.02046545276 0.002643634595 -0.06763846284 -0.08620467688 0.0674541184 0.04876406042 -0.01596846018 -0.03529971313 -1 -1 -1 -0.1256035645 -0.2227362684 -0.4401234741 -0.9889693502 0.6967658256 0.544294052 0.5313923388 0.432136059 0.3204309998 0.3536057749 0.2322641741 0.163025993 0.1935678216 0.10832325 0.08891215977 0.02940894094 0.009453801923 0.1435296454 0.1235360193 0.06895383245 0.04850740268 0.2810671148 0.2402391319 0.1530634104 0.08229230815 0.1112198542 0.4616136701 0.3760416727 0.2702954734 0.1356819259 0.1560513894 0.185911458 0.5980739687 0.4138183594 0.3572465672 0.203419043 0.2109164927 0.2039501953 -0.05528661659 -0.07587301282 -0.1463195339 -0.1676472765 -0.01104372277 -0.03203314661 -0.09700983331 -0.118654838 -0.266503041 -0.3126889409 0.02762479962 0.006351007762 -0.0534708696 -0.07531991759 0.06114201296 0.0396945408 -0.01527567234 -0.03722336327 -0.1633330174 -0.2096962906 -0.1201356563 -0.5392304061 -0.6493266807 0.0899113126 0.06839309212 0.01798306193 -0.003965473886 0.1143168591 0.09282328269 0.04669340186 0.02483443308 -0.05946635003 -0.08198481927 -0.1430591809 -0.1663071766 -0.02613007664 -0.04849545532 -0.1047645985 -0.1277968954 0.1133431471 0.04953845373 0.07049053001 0.002832619897 -0.0193010999 -0.07105175717 -0.09379430688 0.02777685044 0.005946557403 -0.04156102413 -0.06394642544 -0.3070875662 -0.4108397169 -0.2224491138 -1 -1 0.143993697 0.08801688196 0.1024264399 0.0490397878 0.02757810507 -0.01595070464 -0.03791798716 0.066941099 0.04590684191 0.006103390229 -0.01539101788 0.1628537156 0.1140112768 0.1230470403 0.08178337751 0.06122920929 0.02490837587 0.003935599157 0.09385257548 0.07382522339 0.04075472634 0.0203465555 -0.1091140595 -0.154887771 -0.08209711586 -0.2714133592 -0.321659742 -0.03691608919 -0.05848684167 -0.1043365791 -0.1267007753 -0.01702569608 -0.03799356308 -0.08012208053 -0.1018441375 -0.2014142378 -0.248894702 0.1344944056 0.03411054975 0.04548071979 0.05469507505 0.06197692871 -1.257987778e-05 -0.02034359918 -0.05898963969 -0.08003888764 0.0143865764 -0.005278829816 -0.04067080378 -0.06102161625 -0.1456541008 -0.1901560065 0.02641974517 0.007443736743 -0.02491246465 -0.04454404243 0.03631998649 0.01805239598 -0.0114764265 -0.03037258148 -0.1019177966 -0.1433040365 -0.6426065352 -0.9218896484 -1 -1 -1 0.2644086027 0.178744261 0.145489459 0.1112782485 0.0805473938 0.1372067036 0.06753533 0.07156549637 0.0742492458 0.075755429 0.0443058803 0.0267611794 -0.0001389736087 -0.0182879127 0.0505819587 0.03377028675 0.009309561855 -0.008084547103 -0.06823222947 -0.1064343123 -0.05460466289 0.05533913816 0.03926651831 0.01706523211 0.0004296047673 0.05875515178 0.04342370707 0.02331090601 0.007433665127 -0.02545877214 -0.04285252703 -0.07285027441 -0.09120853472 -0.01617563254 -0.03279110354 -0.06030675391 -0.07786366251 0.1229694737 0.0758482567 0.0729518652 0.04640315102 0.01309422117 0.01756575732 -0.008405485061 -0.02424820911 -0.04945875767 -0.06622160932 -0.001985088219 -0.01706376318 -0.04013729463 -0.05611639156 0.04941391479 0.02099108746 0.02350178719 0.003236912806 -0.01108935574 -0.03218526038 -0.04739369618 0.007400418425 -0.00618781507 -0.02545700493 -0.03991044839 -0.3201760629 -0.531781354 0.1008692373 0.06799432754 0.0617377359 0.04935491839 0.02521862605 0.02625199981 0.01063430688 -0.002232775491 -0.01981790045 -0.03353437949 0.01305686649 0.0008917548647 -0.01514390903 -0.02814359457 0.04710937379 0.02670236262 0.02666065934 0.01477622787 0.003291826303 -0.01132115047 -0.02362614026 0.01589079622 0.005063979805 -0.008245469997 -0.01987957256 0.07711551354 0.05479203326 0.04762884521 0.04340142794 0.02620875776 0.0254198808 0.01648968352 0.006295679271 -0.00582200604 -0.01681052451 0.01665314079 0.007065743764 -0.00396475799 -0.01433427401 0.03880999449 0.02435903881 0.02308346176 0.01645299033 0.007444779749 -0.002596153959 -0.01237431154 0.01595305798 0.007495613337 -0.00164661853 -0.01086190796 -0.1639005202 -0.3168036804 0.06877589512 0.05552058086 0.03665103245 0.02306412414 0.013 0.0298359375 0.0194444987 0.0554834351 0.04059531165 0.03392791852 0.03378258554 0.02164303154 0.02008071413 0.01520960533 0.007273722524 -0.001054140524 -0.009735682221 0.01427176199 0.006827669437 -0.0007638407503 -0.008941169156 0.02864914338 0.01843299191 0.01673029587 0.0131819578 0.006199532573 -0.0007275397716 -0.008430387223 0.01197635512 0.005425339043 -0.0009033256568 -0.008161406269 0.03775636363 0.02776632961 0.02216721821 0.02363587225 0.01499743783 0.01325404275 0.01068528102 0.004535496811 -0.001255121742 -0.008097915284 0.009333659567 0.003555226938 -0.001752254386 -0.008208790164 0.01887907005 0.01151498088 0.009790800095 0.007941444021 0.002504995825 -0.002369020732 -0.008467661464 0.006524049118 0.001400947452 -0.003084256462 -0.00885248216 -0.09333803073 -0.1998147268 0.02416850574 0.01711809893 0.01255115941 0.0144389601 0.008088158056 0.006410254511 0.005092783293 0.0002553356222 -0.003880903558 -0.009345095405 0.003655280923 -0.0009230437959 -0.004745578056 -0.009930802288 0.01031352289 0.004757263506 0.003126765639 0.008354559839 0.002215934571 -0.002128420628 -0.00566813781 -0.01059792959 0.0007763272262 -0.003357618153 -0.006641250243 -0.01133739755 0.01384752863 0.01041559113 0.008357092054 0.006357784367 0.004398925781 0.009445871989 0.009547083339 0.006452327799 0.004996497166 0.001514180294 0.007554527717 0.004595227979 0.003246656829 -8.680210914e-05 -0.0006643354508 -0.004609620857 -0.007659960111 -0.0121422876 -0.00210879289 -0.005885142195 -0.008721257258 -0.01300741016 0.005615694406 0.002770364862 0.001520373547 -0.001683787878 0.003714672105 0.0009639784495 -0.0001931282288 -0.003285247803 -0.007186192348 -0.01490364583 -0.06345597789 -0.132 -1 -1 -0.4554765625 -1 -1 -1 -1 -1 -1 -1 -1 -1 -1 -1 -1 -1 -1 -1 -0.8430450094 -0.08742086887 -0.7609831463 -0.01900465965 -0.05191975772 -1 -0.6836251958 -0.981576341 -0.6108068651 -0.3630719015 0.01142473996 -0.3109121467 0.03946696758 -1 -1 -1 -1 -0.8502795776 -0.9432359918 -0.8891440612 -0.5423666181 -0.8020373651 -0.4781456756 -0.2621511389 0.06521876156 -0.2166608771 0.0887750721 -0.7200671795 -0.417988015 -0.6430476718 -0.3617403703 -0.1743156329 0.1102290612 -0.1349919501 0.1296721029 -1 -1 -1 -1 -0.7982650722 -1 -1 -0.6809475669 -0.7629193384 -0.9912148908 -0.5323572242 -0.604160281 -0.5707962507 -0.3092522323 -0.5031335659 -0.2603758487 -0.098568645 0.1471937829 -0.06492680634 0.1628818989 -0.439883508 -0.2149662237 -0.3808732085 -0.1728811181 -0.03394979527 0.1768224603 -0.005523245393 0.1890996885 -0.7947070692 -0.4029213971 -0.4653418649 -0.6227651468 -0.2911125378 -0.3449067399 -0.3259330402 -0.1339810498 -0.2748966167 -0.09812929305 0.02046493728 0.1997960168 0.04412457431 0.2089920902 -0.2276007925 -0.06519187903 -0.1838856634 -0.03503759555 0.06556321482 0.2167667657 0.08488613552 0.2231971121 0.3405014423 0.7594874938 0.7434299206 0.3495104881 0.7270730671 1 1 1 1 1 0.3571102817 0.7104505129 0.3633671183 0.6935950184 1 1 1 1 1 1 1 1 1 1 1 1 1 1 1 1 1 1 -1 -0.4599623685 -0.6166209911 -0.6018085941 -0.2131109362 -0.326143914 -0.2671541197 -0.473454357 -0.1954627031 -0.2413571606 -0.3449150347 -0.1145635545 -0.1532549859 -0.143594566 -0.007537987143 -0.1065740779 0.01743264493 0.1021963407 0.22835841 0.1175945622 0.232324152 -0.07267401772 0.03999724271 -0.04174744521 0.0602759915 0.1311792594 0.2351660424 0.1430466193 0.2369539976 -0.235362617 -0.187169357 -0.04706635796 -0.07922167977 -0.2304426549 -0.1430876426 -0.1811439961 -0.1029155256 -0.09853557041 -0.01793831056 -0.0636415871 0.008318015677 -0.01365066096 0.07838631991 0.01175679335 0.09444289982 0.1532905566 0.2377561456 0.1620027133 0.2376388264 0.03461213508 0.1085576464 0.05504934057 0.1208397181 0.1692724592 0.2366665918 0.1751868915 0.2349022055 -0.2876962038 -0.1681888014 -0.1051510383 -0.04163564097 -0.1637716832 -0.1188993429 -0.07826255983 -0.1701811379 -0.1153307025 -0.07039943244 -0.1167280801 -0.1104415927 -0.06606302805 -0.0601288441 -0.02205913295 -0.06956849475 -0.02891492338 -0.0266864733 0.008005782633 -0.1127026043 -0.06299413566 -0.06829801388 -0.02519112725 -0.05420515739 -0.008798555791 -0.01871671423 0.02046306381 -0.02850146615 0.008506307309 0.006951609037 0.0383398574 0.01292202354 0.04635792349 0.04093649559 0.06908906648 -0.1361628992 -0.06645575211 -0.09528198612 -0.03351576173 -0.03205059349 0.03185444866 -0.003590153345 0.05281909105 -0.05828905695 -0.0039076881 -0.02497708981 0.0225516413 0.02190795999 0.07135632018 0.04460776361 0.08760678812 0.1313955167 0.2292390919 0.1477401179 0.2211158323 0.00485575896 0.04604070512 0.0314061549 0.06673328816 0.06466906501 0.1017074216 0.08224746211 0.1137914222 0.08479848135 0.132423704 0.1583875295 0.2109701633 0.1640897239 0.1992112112 0.9683540792 1 0.50746446 0.5266630554 1 1 1 1 1 1 -0.01526422277 0.01699139637 0.02447699737 0.05139040529 0.01142858122 0.04063542156 0.04506420162 0.06923912977 0.081431171 0.1153913015 0.06454458138 0.1058440631 0.1069746294 0.1322391505 0.1484313968 0.1595409905 0.1444947395 0.1723469114 0.1526194727 0.1432237387 0.1612713809 0.08671517849 0.1140847349 0.2269918698 0.1375986825 0.1482863871 0.1143868397 0.07420193377 0.07447501746 0.0315449709 0.05058865828 0.09494861517 0.05806428384 0.04517974854 0.05183582727 0.02878746245 0.02836229438 0.01862158256 0.006117508226 0.01668665255 0.03396165527 0.01880407238 0.009515883128 0.02617514014 0.01716731805 0.005556902675 0.005345151389 -0.00592204817 0.006896178026 -0.004969326258 -0.005995279711 -0.0174458313 0.1218770658 0.04213670254 0.06244258404 0.05175732613 0.06727886149 0.01461526394 0.03361790657 0.02620952129 0.01989151955 0.0171273309 0.04488754916 0.03343943675 0.01911063545 0.004905198644 0.02355615793 0.01649723652 0.0103017177 0.04267864359 0.02394596803 0.0284611683 0.03333850128 0.01620329509 0.01986842945 0.023753277 0.01431594843 0.0191345362 0.01008966953 0.009550486631 0.000245362699 0.005147000541 -0.003738020629 0.01501434002 0.006390023341 0.01135941418 0.003176352056 0.001340407402 -0.007103095671 -0.001918451717 -0.009905920595 0.02077413233 0.01008676667 0.01304193829 0.002668059763 0.007739786231 -0.003034992571 -0.0004769833277 -0.0108818486 0.006293722295 -0.003721270376 0.0004541589866 -0.009164901215 -0.007532179279 -0.01753003528 -0.01352088593 -0.02308250476 -0.004891164969 -0.0157699826 -0.01366548948 -0.02411911116 -0.01707361739 -0.02807301482 -0.02648438956 -0.03700429916 -0.03109665253 -0.05036305745 -0.004549506557 -0.01374345549 -0.008787458805 -0.01753450118 -0.01853464857 -0.02763818582 -0.02266147346 -0.03129198398 -0.02061255157 -0.03625343699 -0.04142088887 -0.05863027573 -0.04766060315 -0.0628187561 0.02536246414 0.01000995425 0.01292545651 0.01866184046 0.005166865985 0.007431977882 0.008137117684 0.000409115439 0.005315442835 -0.001950109154 -0.004677133871 -0.01220046741 -0.006981594243 -0.01403862195 0.002863015241 -0.00393862678 0.0007490938044 -0.005592624908 -0.008876186137 -0.01547018391 -0.01040366099 -0.0165428668 0.01313482549 0.0107760217 0.001477334972 0.003190106148 0.0141060845 0.008666501483 0.01179416938 0.006789851202 0.005227939597 4.338069819e-06 0.003553615134 -0.001252949933 -0.00105642927 -0.006947173423 -0.002583028479 -0.008036224618 -0.01160516835 -0.01730229797 -0.0125202559 -0.01779201862 -0.003859545021 -0.008892613205 -0.004914186793 -0.009548056302 -0.01318686945 -0.01805348378 -0.01364135294 -0.01812606232 -0.03864564147 -0.06253387451 -0.03811555054 -0.05570348104 0.4132157973 0.1822352651 0.2481641919 0.09174568278 0.0401580918 0.03620385831 0.03341638709 0.03190279755 0.03224888219 0.0192572186 0.01357867417 0.000993687876 0.0267344559 0.01329258717 0.006262016412 -0.006684804334 -0.002693222847 -0.01482792165 -0.016746949 -0.02839610221 -0.01153006614 -0.02394785502 -0.02684556514 -0.03870820607 0.02227669923 0.008373290498 -0.0001134022845 -0.01343453634 0.01897510182 0.004599153578 -0.005455233239 -0.01916267064 -0.03225074977 -0.05712212053 0.1114851771 0.03177842169 0.03316723633 0.03620229541 0.04102616215 0.01693714976 0.002078214006 -0.009663131292 -0.02376815712 0.01627875788 0.0009271542141 -0.01262832257 -0.02714130083 -0.04605258309 -0.07201559346 0.01712470196 0.001271733717 -0.01423317223 -0.02916332974 0.01960905097 0.003247221351 -0.01435075224 -0.0297059625 -0.05544302141 -0.08257832623 0.7734899361 0.3570051217 0.5223457031 0.1628660035 0.04779134136 0.05666071165 0.06780795768 0.0814180024 0.02387559935 0.006998827517 -0.01284440912 -0.02863097619 0.0300782992 0.01268213642 -0.009567331705 -0.0257897741 -0.05948643129 -0.087847871 0.03838169256 0.02046353833 -0.004362118891 -0.02102295345 0.04896134365 0.03052066177 0.00293965258 -0.01415987318 -0.05708811422 -0.08669579908 -0.05308431655 0.2570214539 0.09768743928 0.1168249646 0.1646021729 0.06200427107 0.04304280584 0.01251786038 -0.00501822169 0.0777093801 0.05823137238 0.02456426885 0.006596415382 -0.03080799884 -0.04698047493 -0.06843704565 -0.08331023358 -0.02206159437 -0.03858885557 -0.06265558185 -0.0778138691 0.07630029827 0.02089098742 0.03808541107 -0.01083564539 -0.02770918964 -0.05457893041 -0.07001281049 0.00307984843 -0.01412824106 -0.04400361809 -0.05970019531 -0.1671688566 -0.2395634766 -0.132954628 -0.1855345459 -0.2423808594 1 1 1 1 1 1 0.7608718952 1 0.4079618228 0.2266776779 0.3052008383 0.1220002441 0.05841300248 0.08212090952 0.01990807081 0.002380625727 -0.03071298829 -0.04665576165 0.03988582109 0.02205787805 -0.01447676878 -0.03064541583 0.1821212638 0.1094705441 0.1407380142 0.06326394646 0.04515824721 0.004949360526 -0.0114208002 0.09030777423 0.07195116073 0.02782419982 0.01128113911 0.6330170225 0.5213770895 0.2162069683 0.03773858444 0.06824527886 0.1031109584 0.1426617842 1 1 0.835277559 0.2372082389 0.3548388616 0.6726356506 -0.0892326089 -0.1161839145 -0.07654760175 -0.1570413488 -0.1786828857 -0.04610781632 -0.06084740817 -0.09046536435 -0.1036780233 -0.02703466798 -0.04187504103 -0.07484830554 -0.08809503809 -0.1404447288 -0.1619104568 -0.2219563114 -0.2489122184 -0.004452392606 -0.01935838471 -0.05592519116 -0.06916860306 0.02192184675 0.00699023711 -0.03341909756 -0.04661680173 -0.1122646403 -0.1332308531 -0.09316865054 0.05238666385 0.0374744937 -0.007037324236 -0.02014172462 0.08725688153 0.07241447953 0.02352903838 0.01057096291 -0.05893351721 -0.07035075272 -0.1038909729 -0.113737409 -0.03230339817 -0.04350206506 -0.08084924487 -0.09040869745 -0.196012149 -0.217430913 -0.1649931164 -0.2777774294 -0.274332743 -0.2705246134 0.1121471465 0.04585245294 0.08605122725 -0.001378411841 -0.01229684838 -0.05371647074 -0.06292412519 0.03417845987 0.02360792619 -0.02216093188 -0.03094580936 0.2074252121 0.1315334895 0.1826835976 0.07472174083 0.06457300944 0.01416659617 0.005881854847 0.120623893 0.1109773063 0.05563327589 0.0479326264 -0.1066225704 -0.1187994363 -0.07822147834 -0.175454863 -0.182027924 -0.03862492899 -0.04516977927 -0.08425767279 -0.08917958595 -0.001217011237 -0.00709855324 -0.05054962834 -0.05473126313 -0.1267131462 -0.1300959929 -0.09554745322 0.3036181468 0.09559885066 0.1492918917 0.2765015666 0.04150325135 0.03637970606 -0.01172889928 -0.01507149366 0.08993520154 0.08567152359 0.03259917155 0.03020171525 -0.0576787287 -0.0593530674 -0.09691958889 -0.09702928486 -0.01708683615 -0.01773222116 -0.05971205816 -0.05870995571 0.1412028752 0.08150980732 0.1392941093 0.02923055185 0.02973230396 -0.01696147704 -0.0147247053 0.08170261554 0.08347760955 0.03175726295 0.03535964966 -0.2246512483 -0.2154332145 -0.1824201955 -0.2616708346 -0.2357966288 -0.1286303666 -0.1219404109 -0.09327614076 -0.1755577595 -0.1634266563 -0.05629722984 -0.0524203046 -0.08931082377 -0.08387759173 -0.01096801985 -0.005633286238 -0.04702129758 -0.04003775915 -0.1095836782 -0.09104278564 -0.0683533752 -0.1865454143 -0.1334979757 -0.1085316869 -0.1212088203 1 1 1 0.6235549481 0.09199660782 0.1556604154 0.3060718957 0.7144880152 0.04059787517 0.04753480157 0.001342139108 0.01002566963 0.09886242959 0.1075545937 0.05623800272 0.066780025 -0.03140241167 -0.02104288876 -0.05812291101 -0.0461450509 0.02048974942 0.03281211394 -0.00888147453 0.005165157176 0.1749179049 0.2023371686 0.09369714557 0.06337066062 0.1289758936 -0.07926905363 -0.06571707063 -0.09525309504 -0.08015727836 -0.03233640557 -0.0166076566 -0.05029737241 -0.03291424669 -0.089826081 -0.05056597277 -0.04412364033 0.02118620355 0.03927699355 0.001136704319 0.02099863618 0.08179111755 0.1024389303 0.05953924872 0.08208134386 -0.01346547243 0.008157940927 -0.02297397597 0.0004171208204 0.04308680938 0.06751686651 0.03207201426 0.05840005947 0.3708036922 0.4762634325 0.227866782 0.3710457087 1 1 0.9882144451 1 0.02750606486 0.01622141549 0.009370671851 0.001953597069 0.01234476864 0.01030350685 0.008477352262 0.006850390434 0.00540491879 0.004121446609 0.002978695035 0.01802401458 0.009394613395 0.01238990077 0.01139957045 0.008605896502 0.004256188363 0.006844070047 0.005588465671 0.01108125753 0.006557896105 0.008129922684 0.004228427849 0.005351363816 0.004547748642 0.003449711099 0.0001551532745 0.001021297574 0.004457607389 0.002430676106 0.003381297596 0.001456452948 0.00136087681 -0.0006732672453 0.0004537846243 -0.00149418354 0.005668097038 0.00450074925 0.002062070933 0.00314720104 0.005074791754 0.003302389935 0.003813898269 0.002012110594 0.002719936619 0.0009236997847 0.001508798962 -0.0003209754406 0.002349722931 0.0004900941954 0.001321845596 -0.0005081042947 -0.0004443080512 -0.002339603305 -0.001369014991 -0.003243322372 0.0002533867906 -0.001580603382 -0.0009031732878 -0.002772620639 -0.002358222398 -0.004240924716 -0.003452088901 -0.005369782448 0.00971772509 0.005128837666 0.007862208099 0.003665408117 0.00209305409 -0.0023184454 0.0008255140466 -0.003215915685 0.006211771024 0.002380690236 0.004749262628 0.001254992138 -0.0002700826881 -0.003968979126 -0.001215149083 -0.004601105054 -0.01003315345 -0.01785160419 -0.01060912008 -0.01724187192 0.003456227822 0.0002678023746 0.002312907667 -0.0006022100669 -0.002031433382 -0.005135613785 -0.002741019107 -0.005595676625 0.001298239372 -0.001377195762 0.0003898562929 -0.002080124852 -0.003366325055 -0.006004315869 -0.003930105298 -0.006384404798 -0.01084295763 -0.0165367146 -0.01093922924 -0.01594260272 -0.03384447243 -0.04699676514 -0.02894520011 -0.03955703735 -0.0004359120639 -0.002734787039 -0.001204040045 -0.003365791591 -0.004455449186 -0.006758667684 -0.004965781345 -0.007149679785 -0.001940805848 -0.003998567341 -0.002673791522 -0.004659362683 -0.005484861676 -0.007579867349 -0.006036785357 -0.008071507613 -0.01108461667 -0.01563262817 -0.01144792026 -0.01574650424 -0.009327510123 -0.01763776836 -0.02550055828 -0.03500172933 -0.02456340339 -0.0334223938 0.009178913287 0.005257175907 0.005142010223 0.002461341762 0.0005258577755 0.003120813209 0.004924752991 0.003172574405 0.001058286915 0.002772821724 0.00321125907 0.00108994174