<VTKFile type='UnstructuredGrid' version='0.1' byte_order='LittleEndian'>
<!-- parametric_curve_3d-crv -->
  <UnstructuredGrid>
    <Piece NumberOfPoints='513' NumberOfCells='512'>
      <PointData Scalars='t x(t) y(t) z(t)'>
        <DataArray Name='t' type='Float64' format='ascii' NumberOfComponents='1'>
          -0.99609375 -1 -0.9921875 -0.98828125 -0.984375 -0.98046875 -0.9765625 -0.97265625 -0.96875 -0.96484375 -0.9609375 -0.95703125 -0.953125 -0.94921875 -0.9453125 -0.94140625 -0.9375 -0.93359375 -0.9296875 -0.92578125 -0.921875 -0.91796875 -0.9140625 -0.91015625 -0.90625 -0.90234375 -0.8984375 -0.89453125 -0.890625 -0.88671875 -0.8828125 -0.87890625 -0.875 -0.87109375 -0.8671875 -0.86328125 -0.859375 -0.85546875 -0.8515625 -0.84765625 -0.84375 -0.83984375 -0.8359375 -0.83203125 -0.828125 -0.82421875 -0.8203125 -0.81640625 -0.8125 -0.80859375 -0.8046875 -0.80078125 -0.796875 -0.79296875 -0.7890625 -0.78515625 -0.78125 -0.77734375 -0.7734375 -0.76953125 -0.765625 -0.76171875 -0.7578125 -0.75390625 -0.75 -0.74609375 -0.7421875 -0.73828125 -0.734375 -0.73046875 -0.7265625 -0.72265625 -0.71875 -0.71484375 -0.7109375 -0.70703125 -0.703125 -0.69921875 -0.6953125 -0.69140625 -0.6875 -0.68359375 -0.6796875 -0.67578125 -0.671875 -0.66796875 -0.6640625 -0.66015625 -0.65625 -0.65234375 -0.6484375 -0.64453125 -0.640625 -0.63671875 -0.6328125 -0.62890625 -0.625 -0.62109375 -0.6171875 -0.61328125 -0.609375 -0.60546875 -0.6015625 -0.59765625 -0.59375 -0.58984375 -0.5859375 -0.58203125 -0.578125 -0.57421875 -0.5703125 -0.56640625 -0.5625 -0.55859375 -0.5546875 -0.55078125 -0.546875 -0.54296875 -0.5390625 -0.53515625 -0.53125 -0.52734375 -0.5234375 -0.51953125 -0.515625 -0.51171875 -0.5078125 -0.50390625 -0.5 -0.49609375 -0.4921875 -0.48828125 -0.484375 -0.48046875 -0.4765625 -0.47265625 -0.46875 -0.46484375 -0.4609375 -0.45703125 -0.453125 -0.44921875 -0.4453125 -0.44140625 -0.4375 -0.43359375 -0.4296875 -0.42578125 -0.421875 -0.41796875 -0.4140625 -0.41015625 -0.40625 -0.40234375 -0.3984375 -0.39453125 -0.390625 -0.38671875 -0.3828125 -0.37890625 -0.375 -0.37109375 -0.3671875 -0.36328125 -0.359375 -0.35546875 -0.3515625 -0.34765625 -0.34375 -0.33984375 -0.3359375 -0.33203125 -0.328125 -0.32421875 -0.3203125 -0.31640625 -0.3125 -0.30859375 -0.3046875 -0.30078125 -0.296875 -0.29296875 -0.2890625 -0.28515625 -0.28125 -0.27734375 -0.2734375 -0.26953125 -0.265625 -0.26171875 -0.2578125 -0.25390625 -0.25 -0.24609375 -0.2421875 -0.23828125 -0.234375 -0.23046875 -0.2265625 -0.22265625 -0.21875 -0.21484375 -0.2109375 -0.20703125 -0.203125 -0.19921875 -0.1953125 -0.19140625 -0.1875 -0.18359375 -0.1796875 -0.17578125 -0.171875 -0.16796875 -0.1640625 -0.16015625 -0.15625 -0.15234375 -0.1484375 -0.14453125 -0.140625 -0.13671875 -0.1328125 -0.12890625 -0.125 -0.12109375 -0.1171875 -0.11328125 -0.109375 -0.10546875 -0.1015625 -0.09765625 -0.09375 -0.08984375 -0.0859375 -0.08203125 -0.078125 -0.07421875 -0.0703125 -0.06640625 -0.0625 -0.05859375 -0.0546875 -0.05078125 -0.046875 -0.04296875 -0.0390625 -0.03515625 -0.03125 -0.02734375 -0.0234375 -0.01953125 -0.015625 -0.01171875 -0.0078125 -0.00390625 0 0.00390625 0.0078125 0.01171875 0.015625 0.01953125 0.0234375 0.02734375 0.03125 0.03515625 0.0390625 0.04296875 0.046875 0.05078125 0.0546875 0.05859375 0.0625 0.06640625 0.0703125 0.07421875 0.078125 0.08203125 0.0859375 0.08984375 0.09375 0.09765625 0.1015625 0.10546875 0.109375 0.11328125 0.1171875 0.12109375 0.125 0.12890625 0.1328125 0.13671875 0.140625 0.14453125 0.1484375 0.15234375 0.15625 0.16015625 0.1640625 0.16796875 0.171875 0.17578125 0.1796875 0.18359375 0.1875 0.19140625 0.1953125 0.19921875 0.203125 0.20703125 0.2109375 0.21484375 0.21875 0.22265625 0.2265625 0.23046875 0.234375 0.23828125 0.2421875 0.24609375 0.25 0.25390625 0.2578125 0.26171875 0.265625 0.26953125 0.2734375 0.27734375 0.28125 0.28515625 0.2890625 0.29296875 0.296875 0.30078125 0.3046875 0.30859375 0.3125 0.31640625 0.3203125 0.32421875 0.328125 0.33203125 0.3359375 0.33984375 0.34375 0.34765625 0.3515625 0.35546875 0.359375 0.36328125 0.3671875 0.37109375 0.375 0.37890625 0.3828125 0.38671875 0.390625 0.39453125 0.3984375 0.40234375 0.40625 0.41015625 0.4140625 0.41796875 0.421875 0.42578125 0.4296875 0.43359375 0.4375 0.44140625 0.4453125 0.44921875 0.453125 0.45703125 0.4609375 0.46484375 0.46875 0.47265625 0.4765625 0.48046875 0.484375 0.48828125 0.4921875 0.49609375 0.5 0.50390625 0.5078125 0.51171875 0.515625 0.51953125 0.5234375 0.52734375 0.53125 0.53515625 0.5390625 0.54296875 0.546875 0.55078125 0.5546875 0.55859375 0.5625 0.56640625 0.5703125 0.57421875 0.578125 0.58203125 0.5859375 0.58984375 0.59375 0.59765625 0.6015625 0.60546875 0.609375 0.61328125 0.6171875 0.62109375 0.625 0.62890625 0.6328125 0.63671875 0.640625 0.64453125 0.6484375 0.65234375 0.65625 0.66015625 0.6640625 0.66796875 0.671875 0.67578125 0.6796875 0.68359375 0.6875 0.69140625 0.6953125 0.69921875 0.703125 0.70703125 0.7109375 0.71484375 0.71875 0.72265625 0.7265625 0.73046875 0.734375 0.73828125 0.7421875 0.74609375 0.75 0.75390625 0.7578125 0.76171875 0.765625 0.76953125 0.7734375 0.77734375 0.78125 0.78515625 0.7890625 0.79296875 0.796875 0.80078125 0.8046875 0.80859375 0.8125 0.81640625 0.8203125 0.82421875 0.828125 0.83203125 0.8359375 0.83984375 0.84375 0.84765625 0.8515625 0.85546875 0.859375 0.86328125 0.8671875 0.87109375 0.875 0.87890625 0.8828125 0.88671875 0.890625 0.89453125 0.8984375 0.90234375 0.90625 0.91015625 0.9140625 0.91796875 0.921875 0.92578125 0.9296875 0.93359375 0.9375 0.94140625 0.9453125 0.94921875 0.953125 0.95703125 0.9609375 0.96484375 0.96875 0.97265625 0.9765625 0.98046875 0.984375 0.98828125 0.9921875 0.99609375 1 
        </DataArray>
        <DataArray Name='x(t)' type='Float64' format='ascii' NumberOfComponents='1'>
          -0.99609375 -1 -0.9921875 -0.98828125 -0.984375 -0.98046875 -0.9765625 -0.97265625 -0.96875 -0.96484375 -0.9609375 -0.95703125 -0.953125 -0.94921875 -0.9453125 -0.94140625 -0.9375 -0.93359375 -0.9296875 -0.92578125 -0.921875 -0.91796875 -0.9140625 -0.91015625 -0.90625 -0.90234375 -0.8984375 -0.89453125 -0.890625 -0.88671875 -0.8828125 -0.87890625 -0.875 -0.87109375 -0.8671875 -0.86328125 -0.859375 -0.85546875 -0.8515625 -0.84765625 -0.84375 -0.83984375 -0.8359375 -0.83203125 -0.828125 -0.82421875 -0.8203125 -0.81640625 -0.8125 -0.80859375 -0.8046875 -0.80078125 -0.796875 -0.79296875 -0.7890625 -0.78515625 -0.78125 -0.77734375 -0.7734375 -0.76953125 -0.765625 -0.76171875 -0.7578125 -0.75390625 -0.75 -0.74609375 -0.7421875 -0.73828125 -0.734375 -0.73046875 -0.7265625 -0.72265625 -0.71875 -0.71484375 -0.7109375 -0.70703125 -0.703125 -0.69921875 -0.6953125 -0.69140625 -0.6875 -0.68359375 -0.6796875 -0.67578125 -0.671875 -0.66796875 -0.6640625 -0.66015625 -0.65625 -0.65234375 -0.6484375 -0.64453125 -0.640625 -0.63671875 -0.6328125 -0.62890625 -0.625 -0.62109375 -0.6171875 -0.61328125 -0.609375 -0.60546875 -0.6015625 -0.59765625 -0.59375 -0.58984375 -0.5859375 -0.58203125 -0.578125 -0.57421875 -0.5703125 -0.56640625 -0.5625 -0.55859375 -0.5546875 -0.55078125 -0.546875 -0.54296875 -0.5390625 -0.53515625 -0.53125 -0.52734375 -0.5234375 -0.51953125 -0.515625 -0.51171875 -0.5078125 -0.50390625 -0.5 -0.49609375 -0.4921875 -0.48828125 -0.484375 -0.48046875 -0.4765625 -0.47265625 -0.46875 -0.46484375 -0.4609375 -0.45703125 -0.453125 -0.44921875 -0.4453125 -0.44140625 -0.4375 -0.43359375 -0.4296875 -0.42578125 -0.421875 -0.41796875 -0.4140625 -0.41015625 -0.40625 -0.40234375 -0.3984375 -0.39453125 -0.390625 -0.38671875 -0.3828125 -0.37890625 -0.375 -0.37109375 -0.3671875 -0.36328125 -0.359375 -0.35546875 -0.3515625 -0.34765625 -0.34375 -0.33984375 -0.3359375 -0.33203125 -0.328125 -0.32421875 -0.3203125 -0.31640625 -0.3125 -0.30859375 -0.3046875 -0.30078125 -0.296875 -0.29296875 -0.2890625 -0.28515625 -0.28125 -0.27734375 -0.2734375 -0.26953125 -0.265625 -0.26171875 -0.2578125 -0.25390625 -0.25 -0.24609375 -0.2421875 -0.23828125 -0.234375 -0.23046875 -0.2265625 -0.22265625 -0.21875 -0.21484375 -0.2109375 -0.20703125 -0.203125 -0.19921875 -0.1953125 -0.19140625 -0.1875 -0.18359375 -0.1796875 -0.17578125 -0.171875 -0.16796875 -0.1640625 -0.16015625 -0.15625 -0.15234375 -0.1484375 -0.14453125 -0.140625 -0.13671875 -0.1328125 -0.12890625 -0.125 -0.12109375 -0.1171875 -0.11328125 -0.109375 -0.10546875 -0.1015625 -0.09765625 -0.09375 -0.08984375 -0.0859375 -0.08203125 -0.078125 -0.07421875 -0.0703125 -0.06640625 -0.0625 -0.05859375 -0.0546875 -0.05078125 -0.046875 -0.04296875 -0.0390625 -0.03515625 -0.03125 -0.02734375 -0.0234375 -0.01953125 -0.015625 -0.01171875 -0.0078125 -0.00390625 0 0.00390625 0.0078125 0.01171875 0.015625 0.01953125 0.0234375 0.02734375 0.03125 0.03515625 0.0390625 0.04296875 0.046875 0.05078125 0.0546875 0.05859375 0.0625 0.06640625 0.0703125 0.07421875 0.078125 0.08203125 0.0859375 0.08984375 0.09375 0.09765625 0.1015625 0.10546875 0.109375 0.11328125 0.1171875 0.12109375 0.125 0.12890625 0.1328125 0.13671875 0.140625 0.14453125 0.1484375 0.15234375 0.15625 0.16015625 0.1640625 0.16796875 0.171875 0.17578125 0.1796875 0.18359375 0.1875 0.19140625 0.1953125 0.19921875 0.203125 0.20703125 0.2109375 0.21484375 0.21875 0.22265625 0.2265625 0.23046875 0.234375 0.23828125 0.2421875 0.24609375 0.25 0.25390625 0.2578125 0.26171875 0.265625 0.26953125 0.2734375 0.27734375 0.28125 0.28515625 0.2890625 0.29296875 0.296875 0.30078125 0.3046875 0.30859375 0.3125 0.31640625 0.3203125 0.32421875 0.328125 0.33203125 0.3359375 0.33984375 0.34375 0.34765625 0.3515625 0.35546875 0.359375 0.36328125 0.3671875 0.37109375 0.375 0.37890625 0.3828125 0.38671875 0.390625 0.39453125 0.3984375 0.40234375 0.40625 0.41015625 0.4140625 0.41796875 0.421875 0.42578125 0.4296875 0.43359375 0.4375 0.44140625 0.4453125 0.44921875 0.453125 0.45703125 0.4609375 0.46484375 0.46875 0.47265625 0.4765625 0.48046875 0.484375 0.48828125 0.4921875 0.49609375 0.5 0.50390625 0.5078125 0.51171875 0.515625 0.51953125 0.5234375 0.52734375 0.53125 0.53515625 0.5390625 0.54296875 0.546875 0.55078125 0.5546875 0.55859375 0.5625 0.56640625 0.5703125 0.57421875 0.578125 0.58203125 0.5859375 0.58984375 0.59375 0.59765625 0.6015625 0.60546875 0.609375 0.61328125 0.6171875 0.62109375 0.625 0.62890625 0.6328125 0.63671875 0.640625 0.64453125 0.6484375 0.65234375 0.65625 0.66015625 0.6640625 0.66796875 0.671875 0.67578125 0.6796875 0.68359375 0.6875 0.69140625 0.6953125 0.69921875 0.703125 0.70703125 0.7109375 0.71484375 0.71875 0.72265625 0.7265625 0.73046875 0.734375 0.73828125 0.7421875 0.74609375 0.75 0.75390625 0.7578125 0.76171875 0.765625 0.76953125 0.7734375 0.77734375 0.78125 0.78515625 0.7890625 0.79296875 0.796875 0.80078125 0.8046875 0.80859375 0.8125 0.81640625 0.8203125 0.82421875 0.828125 0.83203125 0.8359375 0.83984375 0.84375 0.84765625 0.8515625 0.85546875 0.859375 0.86328125 0.8671875 0.87109375 0.875 0.87890625 0.8828125 0.88671875 0.890625 0.89453125 0.8984375 0.90234375 0.90625 0.91015625 0.9140625 0.91796875 0.921875 0.92578125 0.9296875 0.93359375 0.9375 0.94140625 0.9453125 0.94921875 0.953125 0.95703125 0.9609375 0.96484375 0.96875 0.97265625 0.9765625 0.98046875 0.984375 0.98828125 0.9921875 0.99609375 1 
        </DataArray>
        <DataArray Name='y(t)' type='Float64' format='ascii' NumberOfComponents='1'>
          0.9922027588 1 0.9844360352 0.9766998291 0.9689941406 0.9613189697 0.9536743164 0.9460601807 0.9384765625 0.9309234619 0.9234008789 0.9159088135 0.9084472656 0.9010162354 0.8936157227 0.8862457275 0.87890625 0.87159729 0.8643188477 0.8570709229 0.8498535156 0.842666626 0.8355102539 0.8283843994 0.8212890625 0.8142242432 0.8071899414 0.8001861572 0.7932128906 0.7862701416 0.7793579102 0.7724761963 0.765625 0.7588043213 0.7520141602 0.7452545166 0.7385253906 0.7318267822 0.7251586914 0.7185211182 0.7119140625 0.7053375244 0.6987915039 0.692276001 0.6857910156 0.6793365479 0.6729125977 0.666519165 0.66015625 0.6538238525 0.6475219727 0.6412506104 0.6350097656 0.6287994385 0.6226196289 0.6164703369 0.6103515625 0.6042633057 0.5982055664 0.5921783447 0.5861816406 0.5802154541 0.5742797852 0.5683746338 0.5625 0.5566558838 0.5508422852 0.5450592041 0.5393066406 0.5335845947 0.5278930664 0.5222320557 0.5166015625 0.5110015869 0.5054321289 0.4998931885 0.4943847656 0.4889068604 0.4834594727 0.4780426025 0.47265625 0.467300415 0.4619750977 0.4566802979 0.4514160156 0.446182251 0.4409790039 0.4358062744 0.4306640625 0.4255523682 0.4204711914 0.4154205322 0.4104003906 0.4054107666 0.4004516602 0.3955230713 0.390625 0.3857574463 0.3809204102 0.3761138916 0.3713378906 0.3665924072 0.3618774414 0.3571929932 0.3525390625 0.3479156494 0.3433227539 0.338760376 0.3342285156 0.3297271729 0.3252563477 0.32081604 0.31640625 0.3120269775 0.3076782227 0.3033599854 0.2990722656 0.2948150635 0.2905883789 0.2863922119 0.2822265625 0.2780914307 0.2739868164 0.2699127197 0.2658691406 0.2618560791 0.2578735352 0.2539215088 0.25 0.2461090088 0.2422485352 0.2384185791 0.2346191406 0.2308502197 0.2271118164 0.2234039307 0.2197265625 0.2160797119 0.2124633789 0.2088775635 0.2053222656 0.2017974854 0.1983032227 0.1948394775 0.19140625 0.18800354 0.1846313477 0.1812896729 0.1779785156 0.174697876 0.1714477539 0.1682281494 0.1650390625 0.1618804932 0.1587524414 0.1556549072 0.1525878906 0.1495513916 0.1465454102 0.1435699463 0.140625 0.1377105713 0.1348266602 0.1319732666 0.1291503906 0.1263580322 0.1235961914 0.1208648682 0.1181640625 0.1154937744 0.1128540039 0.110244751 0.1076660156 0.1051177979 0.1026000977 0.100112915 0.09765625 0.09523010254 0.09283447266 0.09046936035 0.08813476562 0.08583068848 0.08355712891 0.08131408691 0.0791015625 0.07691955566 0.07476806641 0.07264709473 0.07055664062 0.0684967041 0.06646728516 0.06446838379 0.0625 0.06056213379 0.05865478516 0.0567779541 0.05493164062 0.05311584473 0.05133056641 0.04957580566 0.0478515625 0.04615783691 0.04449462891 0.04286193848 0.04125976562 0.03968811035 0.03814697266 0.03663635254 0.03515625 0.03370666504 0.03228759766 0.03089904785 0.02954101562 0.02821350098 0.02691650391 0.02565002441 0.0244140625 0.02320861816 0.02203369141 0.02088928223 0.01977539062 0.0186920166 0.01763916016 0.01661682129 0.015625 0.01466369629 0.01373291016 0.0128326416 0.01196289062 0.01112365723 0.01031494141 0.009536743164 0.0087890625 0.008071899414 0.007385253906 0.006729125977 0.006103515625 0.005508422852 0.004943847656 0.004409790039 0.00390625 0.003433227539 0.002990722656 0.002578735352 0.002197265625 0.001846313477 0.001525878906 0.001235961914 0.0009765625 0.0007476806641 0.0005493164062 0.0003814697266 0.000244140625 0.0001373291016 6.103515625e-05 1.525878906e-05 0 1.525878906e-05 6.103515625e-05 0.0001373291016 0.000244140625 0.0003814697266 0.0005493164062 0.0007476806641 0.0009765625 0.001235961914 0.001525878906 0.001846313477 0.002197265625 0.002578735352 0.002990722656 0.003433227539 0.00390625 0.004409790039 0.004943847656 0.005508422852 0.006103515625 0.006729125977 0.007385253906 0.008071899414 0.0087890625 0.009536743164 0.01031494141 0.01112365723 0.01196289062 0.0128326416 0.01373291016 0.01466369629 0.015625 0.01661682129 0.01763916016 0.0186920166 0.01977539062 0.02088928223 0.02203369141 0.02320861816 0.0244140625 0.02565002441 0.02691650391 0.02821350098 0.02954101562 0.03089904785 0.03228759766 0.03370666504 0.03515625 0.03663635254 0.03814697266 0.03968811035 0.04125976562 0.04286193848 0.04449462891 0.04615783691 0.0478515625 0.04957580566 0.05133056641 0.05311584473 0.05493164062 0.0567779541 0.05865478516 0.06056213379 0.0625 0.06446838379 0.06646728516 0.0684967041 0.07055664062 0.07264709473 0.07476806641 0.07691955566 0.0791015625 0.08131408691 0.08355712891 0.08583068848 0.08813476562 0.09046936035 0.09283447266 0.09523010254 0.09765625 0.100112915 0.1026000977 0.1051177979 0.1076660156 0.110244751 0.1128540039 0.1154937744 0.1181640625 0.1208648682 0.1235961914 0.1263580322 0.1291503906 0.1319732666 0.1348266602 0.1377105713 0.140625 0.1435699463 0.1465454102 0.1495513916 0.1525878906 0.1556549072 0.1587524414 0.1618804932 0.1650390625 0.1682281494 0.1714477539 0.174697876 0.1779785156 0.1812896729 0.1846313477 0.18800354 0.19140625 0.1948394775 0.1983032227 0.2017974854 0.2053222656 0.2088775635 0.2124633789 0.2160797119 0.2197265625 0.2234039307 0.2271118164 0.2308502197 0.2346191406 0.2384185791 0.2422485352 0.2461090088 0.25 0.2539215088 0.2578735352 0.2618560791 0.2658691406 0.2699127197 0.2739868164 0.2780914307 0.2822265625 0.2863922119 0.2905883789 0.2948150635 0.2990722656 0.3033599854 0.3076782227 0.3120269775 0.31640625 0.32081604 0.3252563477 0.3297271729 0.3342285156 0.338760376 0.3433227539 0.3479156494 0.3525390625 0.3571929932 0.3618774414 0.3665924072 0.3713378906 0.3761138916 0.3809204102 0.3857574463 0.390625 0.3955230713 0.4004516602 0.4054107666 0.4104003906 0.4154205322 0.4204711914 0.4255523682 0.4306640625 0.4358062744 0.4409790039 0.446182251 0.4514160156 0.4566802979 0.4619750977 0.467300415 0.47265625 0.4780426025 0.4834594727 0.4889068604 0.4943847656 0.4998931885 0.5054321289 0.5110015869 0.5166015625 0.5222320557 0.5278930664 0.5335845947 0.5393066406 0.5450592041 0.5508422852 0.5566558838 0.5625 0.5683746338 0.5742797852 0.5802154541 0.5861816406 0.5921783447 0.5982055664 0.6042633057 0.6103515625 0.6164703369 0.6226196289 0.6287994385 0.6350097656 0.6412506104 0.6475219727 0.6538238525 0.66015625 0.666519165 0.6729125977 0.6793365479 0.6857910156 0.692276001 0.6987915039 0.7053375244 0.7119140625 0.7185211182 0.7251586914 0.7318267822 0.7385253906 0.7452545166 0.7520141602 0.7588043213 0.765625 0.7724761963 0.7793579102 0.7862701416 0.7932128906 0.8001861572 0.8071899414 0.8142242432 0.8212890625 0.8283843994 0.8355102539 0.842666626 0.8498535156 0.8570709229 0.8643188477 0.87159729 0.87890625 0.8862457275 0.8936157227 0.9010162354 0.9084472656 0.9159088135 0.9234008789 0.9309234619 0.9384765625 0.9460601807 0.9536743164 0.9613189697 0.9689941406 0.9766998291 0.9844360352 0.9922027588 1 
        </DataArray>
        <DataArray Name='z(t)' type='Float64' format='ascii' NumberOfComponents='1'>
          -0.9883269668 -1 -0.9767451286 -0.965254128 -0.9538536072 -0.9425432086 -0.9313225746 -0.9201913476 -0.9091491699 -0.898195684 -0.8873305321 -0.8765533566 -0.8658638 -0.8552615047 -0.8447461128 -0.8343172669 -0.8239746094 -0.8137177825 -0.8035464287 -0.7934601903 -0.7834587097 -0.7735416293 -0.7637085915 -0.7539592385 -0.7442932129 -0.7347101569 -0.725209713 -0.7157915235 -0.7064552307 -0.6972004771 -0.6880269051 -0.6789341569 -0.669921875 -0.6609897017 -0.6521372795 -0.6433642507 -0.6346702576 -0.6260549426 -0.6175179482 -0.6090589166 -0.6006774902 -0.5923733115 -0.5841460228 -0.5759952664 -0.5679206848 -0.5599219203 -0.5519986153 -0.5441504121 -0.5363769531 -0.5286778808 -0.5210528374 -0.5135014653 -0.506023407 -0.4986183047 -0.4912858009 -0.484025538 -0.4768371582 -0.469720304 -0.4626746178 -0.4556997418 -0.4487953186 -0.4419609904 -0.4351963997 -0.4285011888 -0.421875 -0.4153174758 -0.4088282585 -0.4024069905 -0.3960533142 -0.3897668719 -0.3835473061 -0.377394259 -0.371307373 -0.3652862906 -0.3593306541 -0.3534401059 -0.3476142883 -0.3418528438 -0.3361554146 -0.3305216432 -0.3249511719 -0.3194436431 -0.3139986992 -0.3086159825 -0.3032951355 -0.2980358005 -0.2928376198 -0.2877002358 -0.282623291 -0.2776064277 -0.2726492882 -0.2677515149 -0.2629127502 -0.2581326365 -0.2534108162 -0.2487469316 -0.244140625 -0.2395915389 -0.2350993156 -0.2306635976 -0.2262840271 -0.2219602466 -0.2176918983 -0.2134786248 -0.2093200684 -0.2052158713 -0.2011656761 -0.1971691251 -0.1932258606 -0.189335525 -0.1854977608 -0.1817122102 -0.1779785156 -0.1742963195 -0.1706652641 -0.1670849919 -0.1635551453 -0.1600753665 -0.156645298 -0.1532645822 -0.1499328613 -0.1466497779 -0.1434149742 -0.1402280927 -0.1370887756 -0.1339966655 -0.1309514046 -0.1279526353 -0.125 -0.1220931411 -0.1192317009 -0.1164153218 -0.1136436462 -0.1109163165 -0.108232975 -0.1055932641 -0.1029968262 -0.1004433036 -0.09793233871 -0.09546357393 -0.09303665161 -0.09065121412 -0.08830690384 -0.08600336313 -0.08374023438 -0.08151715994 -0.0793337822 -0.07718974352 -0.07508468628 -0.07301825285 -0.0709900856 -0.06899982691 -0.06704711914 -0.06513160467 -0.06325292587 -0.06141072512 -0.05960464478 -0.05783432722 -0.05609941483 -0.05439954996 -0.052734375 -0.05110353231 -0.04950666428 -0.04794341326 -0.04641342163 -0.04491633177 -0.04345178604 -0.04201942682 -0.04061889648 -0.0392498374 -0.03791189194 -0.03660470247 -0.03532791138 -0.03408116102 -0.03286409378 -0.03167635202 -0.03051757812 -0.02938741446 -0.02828550339 -0.02721148729 -0.02616500854 -0.02514570951 -0.02415323257 -0.0231872201 -0.02224731445 -0.02133315802 -0.02044439316 -0.01958066225 -0.01874160767 -0.01792687178 -0.01713609695 -0.01636892557 -0.015625 -0.01490396261 -0.01420545578 -0.01352912188 -0.01287460327 -0.01224154234 -0.01162958145 -0.01103836298 -0.0104675293 -0.009916722775 -0.009385585785 -0.0088737607 -0.008380889893 -0.007906615734 -0.007450580597 -0.007012426853 -0.006591796875 -0.006188333035 -0.005801677704 -0.005431473255 -0.005077362061 -0.004738986492 -0.004415988922 -0.004108011723 -0.003814697266 -0.003535687923 -0.003270626068 -0.003019154072 -0.002780914307 -0.002555549145 -0.002342700958 -0.002142012119 -0.001953125 -0.001775681973 -0.001609325409 -0.001453697681 -0.001308441162 -0.001173198223 -0.001047611237 -0.0009313225746 -0.0008239746094 -0.000725209713 -0.0006346702576 -0.0005519986153 -0.0004768371582 -0.0004088282585 -0.0003476142883 -0.0002928376198 -0.000244140625 -0.0002011656761 -0.0001635551453 -0.0001309514046 -0.0001029968262 -7.93337822e-05 -5.960464478e-05 -4.345178604e-05 -3.051757812e-05 -2.044439316e-05 -1.287460327e-05 -7.450580597e-06 -3.814697266e-06 -1.609325409e-06 -4.768371582e-07 -5.960464478e-08 0 5.960464478e-08 4.768371582e-07 1.609325409e-06 3.814697266e-06 7.450580597e-06 1.287460327e-05 2.044439316e-05 3.051757812e-05 4.345178604e-05 5.960464478e-05 7.93337822e-05 0.0001029968262 0.0001309514046 0.0001635551453 0.0002011656761 0.000244140625 0.0002928376198 0.0003476142883 0.0004088282585 0.0004768371582 0.0005519986153 0.0006346702576 0.000725209713 0.0008239746094 0.0009313225746 0.001047611237 0.001173198223 0.001308441162 0.001453697681 0.001609325409 0.001775681973 0.001953125 0.002142012119 0.002342700958 0.002555549145 0.002780914307 0.003019154072 0.003270626068 0.003535687923 0.003814697266 0.004108011723 0.004415988922 0.004738986492 0.005077362061 0.005431473255 0.005801677704 0.006188333035 0.006591796875 0.007012426853 0.007450580597 0.007906615734 0.008380889893 0.0088737607 0.009385585785 0.009916722775 0.0104675293 0.01103836298 0.01162958145 0.01224154234 0.01287460327 0.01352912188 0.01420545578 0.01490396261 0.015625 0.01636892557 0.01713609695 0.01792687178 0.01874160767 0.01958066225 0.02044439316 0.02133315802 0.02224731445 0.0231872201 0.02415323257 0.02514570951 0.02616500854 0.02721148729 0.02828550339 0.02938741446 0.03051757812 0.03167635202 0.03286409378 0.03408116102 0.03532791138 0.03660470247 0.03791189194 0.0392498374 0.04061889648 0.04201942682 0.04345178604 0.04491633177 0.04641342163 0.04794341326 0.04950666428 0.05110353231 0.052734375 0.05439954996 0.05609941483 0.05783432722 0.05960464478 0.06141072512 0.06325292587 0.06513160467 0.06704711914 0.06899982691 0.0709900856 0.07301825285 0.07508468628 0.07718974352 0.0793337822 0.08151715994 0.08374023438 0.08600336313 0.08830690384 0.09065121412 0.09303665161 0.09546357393 0.09793233871 0.1004433036 0.1029968262 0.1055932641 0.108232975 0.1109163165 0.1136436462 0.1164153218 0.1192317009 0.1220931411 0.125 0.1279526353 0.1309514046 0.1339966655 0.1370887756 0.1402280927 0.1434149742 0.1466497779 0.1499328613 0.1532645822 0.156645298 0.1600753665 0.1635551453 0.1670849919 0.1706652641 0.1742963195 0.1779785156 0.1817122102 0.1854977608 0.189335525 0.1932258606 0.1971691251 0.2011656761 0.2052158713 0.2093200684 0.2134786248 0.2176918983 0.2219602466 0.2262840271 0.2306635976 0.2350993156 0.2395915389 0.244140625 0.2487469316 0.2534108162 0.2581326365 0.2629127502 0.2677515149 0.2726492882 0.2776064277 0.282623291 0.2877002358 0.2928376198 0.2980358005 0.3032951355 0.3086159825 0.3139986992 0.3194436431 0.3249511719 0.3305216432 0.3361554146 0.3418528438 0.3476142883 0.3534401059 0.3593306541 0.3652862906 0.371307373 0.377394259 0.3835473061 0.3897668719 0.3960533142 0.4024069905 0.4088282585 0.4153174758 0.421875 0.4285011888 0.4351963997 0.4419609904 0.4487953186 0.4556997418 0.4626746178 0.469720304 0.4768371582 0.484025538 0.4912858009 0.4986183047 0.506023407 0.5135014653 0.5210528374 0.5286778808 0.5363769531 0.5441504121 0.5519986153 0.5599219203 0.5679206848 0.5759952664 0.5841460228 0.5923733115 0.6006774902 0.6090589166 0.6175179482 0.6260549426 0.6346702576 0.6433642507 0.6521372795 0.6609897017 0.669921875 0.6789341569 0.6880269051 0.6972004771 0.7064552307 0.7157915235 0.725209713 0.7347101569 0.7442932129 0.7539592385 0.7637085915 0.7735416293 0.7834587097 0.7934601903 0.8035464287 0.8137177825 0.8239746094 0.8343172669 0.8447461128 0.8552615047 0.8658638 0.8765533566 0.8873305321 0.898195684 0.9091491699 0.9201913476 0.9313225746 0.9425432086 0.9538536072 0.965254128 0.9767451286 0.9883269668 1 
        </DataArray>
      </PointData>
      <Points>
        <DataArray Name='Points' type='Float64' format='ascii' NumberOfComponents='3'>
          -0.99609375 0.9922027588 -0.9883269668
          -1 1 -1
          -0.9921875 0.9844360352 -0.9767451286
          -0.98828125 0.9766998291 -0.965254128
          -0.984375 0.9689941406 -0.9538536072
          -0.98046875 0.9613189697 -0.9425432086
          -0.9765625 0.9536743164 -0.9313225746
          -0.97265625 0.9460601807 -0.9201913476
          -0.96875 0.9384765625 -0.9091491699
          -0.96484375 0.9309234619 -0.898195684
          -0.9609375 0.9234008789 -0.8873305321
          -0.95703125 0.9159088135 -0.8765533566
          -0.953125 0.9084472656 -0.8658638
          -0.94921875 0.9010162354 -0.8552615047
          -0.9453125 0.8936157227 -0.8447461128
          -0.94140625 0.8862457275 -0.8343172669
          -0.9375 0.87890625 -0.8239746094
          -0.93359375 0.87159729 -0.8137177825
          -0.9296875 0.8643188477 -0.8035464287
          -0.92578125 0.8570709229 -0.7934601903
          -0.921875 0.8498535156 -0.7834587097
          -0.91796875 0.842666626 -0.7735416293
          -0.9140625 0.8355102539 -0.7637085915
          -0.91015625 0.8283843994 -0.7539592385
          -0.90625 0.8212890625 -0.7442932129
          -0.90234375 0.8142242432 -0.7347101569
          -0.8984375 0.8071899414 -0.725209713
          -0.89453125 0.8001861572 -0.7157915235
          -0.890625 0.7932128906 -0.7064552307
          -0.88671875 0.7862701416 -0.6972004771
          -0.8828125 0.7793579102 -0.6880269051
          -0.87890625 0.7724761963 -0.6789341569
          -0.875 0.765625 -0.669921875
          -0.87109375 0.7588043213 -0.6609897017
          -0.8671875 0.7520141602 -0.6521372795
          -0.86328125 0.7452545166 -0.6433642507
          -0.859375 0.7385253906 -0.6346702576
          -0.85546875 0.7318267822 -0.6260549426
          -0.8515625 0.7251586914 -0.6175179482
          -0.84765625 0.7185211182 -0.6090589166
          -0.84375 0.7119140625 -0.6006774902
          -0.83984375 0.7053375244 -0.5923733115
          -0.8359375 0.6987915039 -0.5841460228
          -0.83203125 0.692276001 -0.5759952664
          -0.828125 0.6857910156 -0.5679206848
          -0.82421875 0.6793365479 -0.5599219203
          -0.8203125 0.6729125977 -0.5519986153
          -0.81640625 0.666519165 -0.5441504121
          -0.8125 0.66015625 -0.5363769531
          -0.80859375 0.6538238525 -0.5286778808
          -0.8046875 0.6475219727 -0.5210528374
          -0.80078125 0.6412506104 -0.5135014653
          -0.796875 0.6350097656 -0.506023407
          -0.79296875 0.6287994385 -0.4986183047
          -0.7890625 0.6226196289 -0.4912858009
          -0.78515625 0.6164703369 -0.484025538
          -0.78125 0.6103515625 -0.4768371582
          -0.77734375 0.6042633057 -0.469720304
          -0.7734375 0.5982055664 -0.4626746178
          -0.76953125 0.5921783447 -0.4556997418
          -0.765625 0.5861816406 -0.4487953186
          -0.76171875 0.5802154541 -0.4419609904
          -0.7578125 0.5742797852 -0.4351963997
          -0.75390625 0.5683746338 -0.4285011888
          -0.75 0.5625 -0.421875
          -0.74609375 0.5566558838 -0.4153174758
          -0.7421875 0.5508422852 -0.4088282585
          -0.73828125 0.5450592041 -0.4024069905
          -0.734375 0.5393066406 -0.3960533142
          -0.73046875 0.5335845947 -0.3897668719
          -0.7265625 0.5278930664 -0.3835473061
          -0.72265625 0.5222320557 -0.377394259
          -0.71875 0.5166015625 -0.371307373
          -0.71484375 0.5110015869 -0.3652862906
          -0.7109375 0.5054321289 -0.3593306541
          -0.70703125 0.4998931885 -0.3534401059
          -0.703125 0.4943847656 -0.3476142883
          -0.69921875 0.4889068604 -0.3418528438
          -0.6953125 0.4834594727 -0.3361554146
          -0.69140625 0.4780426025 -0.3305216432
          -0.6875 0.47265625 -0.3249511719
          -0.68359375 0.467300415 -0.3194436431
          -0.6796875 0.4619750977 -0.3139986992
          -0.67578125 0.4566802979 -0.3086159825
          -0.671875 0.4514160156 -0.3032951355
          -0.66796875 0.446182251 -0.2980358005
          -0.6640625 0.4409790039 -0.2928376198
          -0.66015625 0.4358062744 -0.2877002358
          -0.65625 0.4306640625 -0.282623291
          -0.65234375 0.4255523682 -0.2776064277
          -0.6484375 0.4204711914 -0.2726492882
          -0.64453125 0.4154205322 -0.2677515149
          -0.640625 0.4104003906 -0.2629127502
          -0.63671875 0.4054107666 -0.2581326365
          -0.6328125 0.4004516602 -0.2534108162
          -0.62890625 0.3955230713 -0.2487469316