<VTKFile type='UnstructuredGrid' version='0.1' byte_order='LittleEndian'>
<!-- parametric_surface_with_defects-rect -->
  <UnstructuredGrid>
    <Piece NumberOfPoints='4097' NumberOfCells='4032'>
      <PointData Scalars='u v x(u,v) y(u,v) z(u,v)' >
        <DataArray Name='u' type='Float64' format='ascii' NumberOfComponents='1'>
          -1 -0.96875 -0.96875 -0.9375 -0.9375 -0.96875 -0.9375 -0.90625 -0.90625 -0.875 -0.875 -0.90625 -0.875 -0.96875 -0.9375 -0.96875 -0.9375 -0.90625 -0.875 -0.90625 -0.875 -0.84375 -0.84375 -0.8125 -0.8125 -0.84375 -0.8125 -0.78125 -0.78125 -0.75 -0.75 -0.78125 -0.75 -0.84375 -0.8125 -0.84375 -0.8125 -0.78125 -0.75 -0.78125 -0.75 -0.96875 -0.9375 -0.96875 -0.9375 -0.90625 -0.875 -0.90625 -0.875 -0.96875 -0.9375 -0.96875 -0.9375 -0.90625 -0.875 -0.90625 -0.875 -0.84375 -0.8125 -0.84375 -0.8125 -0.78125 -0.75 -0.78125 -0.75 -0.84375 -0.8125 -0.84375 -0.8125 -0.78125 -0.75 -0.78125 -0.75 -0.71875 -0.71875 -0.6875 -0.6875 -0.71875 -0.6875 -0.65625 -0.65625 -0.625 -0.625 -0.65625 -0.625 -0.71875 -0.6875 -0.71875 -0.6875 -0.65625 -0.625 -0.65625 -0.625 -0.59375 -0.59375 -0.5625 -0.5625 -0.59375 -0.5625 -0.53125 -0.53125 -0.5 -0.5 -0.53125 -0.5 -0.59375 -0.5625 -0.59375 -0.5625 -0.53125 -0.5 -0.53125 -0.5 -0.71875 -0.6875 -0.71875 -0.6875 -0.65625 -0.625 -0.65625 -0.625 -0.71875 -0.6875 -0.71875 -0.6875 -0.65625 -0.625 -0.65625 -0.625 -0.59375 -0.5625 -0.59375 -0.5625 -0.53125 -0.5 -0.53125 -0.5 -0.59375 -0.5625 -0.59375 -0.5625 -0.53125 -0.5 -0.53125 -0.5 -0.96875 -0.9375 -0.96875 -0.9375 -0.90625 -0.875 -0.90625 -0.875 -0.96875 -0.9375 -0.96875 -0.9375 -0.90625 -0.875 -0.90625 -0.875 -0.84375 -0.8125 -0.84375 -0.8125 -0.78125 -0.75 -0.78125 -0.75 -0.84375 -0.8125 -0.84375 -0.8125 -0.78125 -0.75 -0.78125 -0.75 -0.96875 -0.9375 -0.96875 -0.9375 -0.90625 -0.875 -0.90625 -0.875 -0.96875 -0.9375 -0.96875 -0.9375 -0.90625 -0.875 -0.90625 -0.875 -0.84375 -0.8125 -0.84375 -0.8125 -0.78125 -0.75 -0.78125 -0.75 -0.84375 -0.8125 -0.84375 -0.8125 -0.78125 -0.75 -0.78125 -0.75 -0.71875 -0.6875 -0.71875 -0.6875 -0.65625 -0.625 -0.65625 -0.625 -0.71875 -0.6875 -0.71875 -0.6875 -0.65625 -0.625 -0.65625 -0.625 -0.59375 -0.5625 -0.59375 -0.5625 -0.53125 -0.5 -0.53125 -0.5 -0.59375 -0.5625 -0.59375 -0.5625 -0.53125 -0.5 -0.53125 -0.5 -0.71875 -0.6875 -0.71875 -0.6875 -0.65625 -0.625 -0.65625 -0.625 -0.71875 -0.6875 -0.71875 -0.6875 -0.65625 -0.625 -0.65625 -0.625 -0.59375 -0.5625 -0.59375 -0.5625 -0.53125 -0.5 -0.53125 -0.5 -0.59375 -0.5625 -0.59375 -0.5625 -0.53125 -0.5 -0.53125 -0.5 -0.46875 -0.46875 -0.4375 -0.4375 -0.46875 -0.4375 -0.40625 -0.40625 -0.375 -0.375 -0.40625 -0.375 -0.46875 -0.4375 -0.46875 -0.4375 -0.40625 -0.375 -0.40625 -0.375 -0.34375 -0.34375 -0.3125 -0.3125 -0.34375 -0.3125 -0.28125 -0.28125 -0.25 -0.25 -0.28125 -0.25 -0.34375 -0.3125 -0.34375 -0.3125 -0.28125 -0.25 -0.28125 -0.25 -0.46875 -0.4375 -0.46875 -0.4375 -0.40625 -0.375 -0.40625 -0.375 -0.46875 -0.4375 -0.46875 -0.4375 -0.40625 -0.375 -0.40625 -0.375 -0.34375 -0.3125 -0.34375 -0.3125 -0.28125 -0.25 -0.28125 -0.25 -0.34375 -0.3125 -0.34375 -0.3125 -0.28125 -0.25 -0.28125 -0.25 -0.21875 -0.21875 -0.1875 -0.1875 -0.21875 -0.1875 -0.15625 -0.15625 -0.125 -0.125 -0.15625 -0.125 -0.21875 -0.1875 -0.21875 -0.1875 -0.15625 -0.125 -0.15625 -0.125 -0.09375 -0.09375 -0.0625 -0.0625 -0.09375 -0.0625 -0.03125 -0.03125 0 0 -0.03125 0 -0.09375 -0.0625 -0.09375 -0.0625 -0.03125 0 -0.03125 0 -0.21875 -0.1875 -0.21875 -0.1875 -0.15625 -0.125 -0.15625 -0.125 -0.21875 -0.1875 -0.21875 -0.1875 -0.15625 -0.125 -0.15625 -0.125 -0.09375 -0.0625 -0.09375 -0.0625 -0.03125 0 -0.03125 0 -0.09375 -0.0625 -0.09375 -0.0625 -0.03125 0 -0.03125 0 -0.46875 -0.4375 -0.46875 -0.4375 -0.40625 -0.375 -0.40625 -0.375 -0.46875 -0.4375 -0.46875 -0.4375 -0.40625 -0.375 -0.40625 -0.375 -0.34375 -0.3125 -0.34375 -0.3125 -0.28125 -0.25 -0.28125 -0.25 -0.34375 -0.3125 -0.34375 -0.3125 -0.28125 -0.25 -0.28125 -0.25 -0.46875 -0.4375 -0.46875 -0.4375 -0.40625 -0.375 -0.40625 -0.375 -0.46875 -0.4375 -0.46875 -0.4375 -0.40625 -0.375 -0.40625 -0.375 -0.34375 -0.3125 -0.34375 -0.3125 -0.28125 -0.25 -0.28125 -0.25 -0.34375 -0.3125 -0.34375 -0.3125 -0.28125 -0.25 -0.28125 -0.25 -0.21875 -0.1875 -0.21875 -0.1875 -0.15625 -0.125 -0.15625 -0.125 -0.21875 -0.1875 -0.21875 -0.1875 -0.15625 -0.125 -0.15625 -0.125 -0.09375 -0.0625 -0.09375 -0.0625 -0.03125 0 -0.03125 0 -0.09375 -0.0625 -0.09375 -0.0625 -0.03125 0 -0.03125 0 -0.21875 -0.1875 -0.21875 -0.1875 -0.15625 -0.125 -0.15625 -0.125 -0.21875 -0.1875 -0.21875 -0.1875 -0.15625 -0.125 -0.15625 -0.125 -0.09375 -0.0625 -0.09375 -0.0625 -0.03125 0 -0.03125 0 -0.09375 -0.0625 -0.09375 -0.0625 -0.03125 0 -0.03125 0 -0.96875 -0.9375 -0.96875 -0.9375 -0.90625 -0.875 -0.90625 -0.875 -0.96875 -0.9375 -0.96875 -0.9375 -0.90625 -0.875 -0.90625 -0.875 -0.84375 -0.8125 -0.84375 -0.8125 -0.78125 -0.75 -0.78125 -0.75 -0.84375 -0.8125 -0.84375 -0.8125 -0.78125 -0.75 -0.78125 -0.75 -0.96875 -0.9375 -0.96875 -0.9375 -0.90625 -0.875 -0.90625 -0.875 -0.96875 -0.9375 -0.96875 -0.9375 -0.90625 -0.875 -0.90625 -0.875 -0.84375 -0.8125 -0.84375 -0.8125 -0.78125 -0.75 -0.78125 -0.75 -0.84375 -0.8125 -0.84375 -0.8125 -0.78125 -0.75 -0.78125 -0.75 -0.71875 -0.6875 -0.71875 -0.6875 -0.65625 -0.625 -0.65625 -0.625 -0.71875 -0.6875 -0.71875 -0.6875 -0.65625 -0.625 -0.65625 -0.625 -0.59375 -0.5625 -0.59375 -0.5625 -0.53125 -0.5 -0.53125 -0.5 -0.59375 -0.5625 -0.59375 -0.5625 -0.53125 -0.5 -0.53125 -0.5 -0.71875 -0.6875 -0.71875 -0.6875 -0.65625 -0.625 -0.65625 -0.625 -0.71875 -0.6875 -0.71875 -0.6875 -0.65625 -0.625 -0.65625 -0.625 -0.59375 -0.5625 -0.59375 -0.5625 -0.53125 -0.5 -0.53125 -0.5 -0.59375 -0.5625 -0.59375 -0.5625 -0.53125 -0.5 -0.53125 -0.5 -0.96875 -0.9375 -0.96875 -0.9375 -0.90625 -0.875 -0.90625 -0.875 -0.96875 -0.9375 -0.96875 -0.9375 -0.90625 -0.875 -0.90625 -0.875 -0.84375 -0.8125 -0.84375 -0.8125 -0.78125 -0.75 -0.78125 -0.75 -0.84375 -0.8125 -0.84375 -0.8125 -0.78125 -0.75 -0.78125 -0.75 -0.96875 -0.9375 -0.96875 -0.9375 -0.90625 -0.875 -0.90625 -0.875 -0.96875 -0.9375 -0.96875 -0.9375 -0.90625 -0.875 -0.90625 -0.875 -0.84375 -0.8125 -0.84375 -0.8125 -0.78125 -0.75 -0.78125 -0.75 -0.84375 -0.8125 -0.84375 -0.8125 -0.78125 -0.75 -0.78125 -0.75 -0.71875 -0.6875 -0.71875 -0.6875 -0.65625 -0.625 -0.65625 -0.625 -0.71875 -0.6875 -0.71875 -0.6875 -0.65625 -0.625 -0.65625 -0.625 -0.59375 -0.5625 -0.59375 -0.5625 -0.53125 -0.5 -0.53125 -0.5 -0.59375 -0.5625 -0.59375 -0.5625 -0.53125 -0.5 -0.53125 -0.5 -0.71875 -0.6875 -0.71875 -0.6875 -0.65625 -0.625 -0.65625 -0.625 -0.71875 -0.6875 -0.71875 -0.6875 -0.65625 -0.625 -0.65625 -0.625 -0.59375 -0.5625 -0.59375 -0.5625 -0.53125 -0.5 -0.53125 -0.5 -0.59375 -0.5625 -0.59375 -0.5625 -0.53125 -0.5 -0.53125 -0.5 -0.46875 -0.4375 -0.46875 -0.4375 -0.40625 -0.375 -0.40625 -0.375 -0.46875 -0.4375 -0.46875 -0.4375 -0.40625 -0.375 -0.40625 -0.375 -0.34375 -0.3125 -0.34375 -0.3125 -0.28125 -0.25 -0.28125 -0.25 -0.34375 -0.3125 -0.34375 -0.3125 -0.28125 -0.25 -0.28125 -0.25 -0.46875 -0.4375 -0.46875 -0.4375 -0.40625 -0.375 -0.40625 -0.375 -0.46875 -0.4375 -0.46875 -0.4375 -0.40625 -0.375 -0.40625 -0.375 -0.34375 -0.3125 -0.34375 -0.3125 -0.28125 -0.25 -0.28125 -0.25 -0.34375 -0.3125 -0.34375 -0.3125 -0.28125 -0.25 -0.28125 -0.25 -0.21875 -0.1875 -0.21875 -0.1875 -0.15625 -0.125 -0.15625 -0.125 -0.21875 -0.1875 -0.21875 -0.1875 -0.15625 -0.125 -0.15625 -0.125 -0.09375 -0.0625 -0.09375 -0.0625 -0.03125 0 -0.03125 0 -0.09375 -0.0625 -0.09375 -0.0625 -0.03125 0 -0.03125 0 -0.21875 -0.1875 -0.21875 -0.1875 -0.15625 -0.125 -0.15625 -0.125 -0.21875 -0.1875 -0.21875 -0.1875 -0.15625 -0.125 -0.15625 -0.125 -0.09375 -0.0625 -0.09375 -0.0625 -0.03125 0 -0.03125 0 -0.09375 -0.0625 -0.09375 -0.0625 -0.03125 0 -0.03125 0 -0.46875 -0.4375 -0.46875 -0.4375 -0.40625 -0.375 -0.40625 -0.375 -0.46875 -0.4375 -0.46875 -0.4375 -0.40625 -0.375 -0.40625 -0.375 -0.34375 -0.3125 -0.34375 -0.3125 -0.28125 -0.25 -0.28125 -0.25 -0.34375 -0.3125 -0.34375 -0.3125 -0.28125 -0.25 -0.28125 -0.25 -0.46875 -0.4375 -0.46875 -0.4375 -0.40625 -0.375 -0.40625 -0.375 -0.46875 -0.4375 -0.46875 -0.4375 -0.40625 -0.375 -0.40625 -0.375 -0.34375 -0.3125 -0.34375 -0.3125 -0.28125 -0.25 -0.28125 -0.25 -0.34375 -0.3125 -0.34375 -0.3125 -0.28125 -0.25 -0.28125 -0.25 -0.21875 -0.1875 -0.21875 -0.1875 -0.15625 -0.125 -0.15625 -0.125 -0.21875 -0.1875 -0.21875 -0.1875 -0.15625 -0.125 -0.15625 -0.125 -0.09375 -0.0625 -0.09375 -0.0625 -0.03125 0 -0.03125 0 -0.09375 -0.0625 -0.09375 -0.0625 -0.03125 0 -0.03125 0 -0.21875 -0.1875 -0.21875 -0.1875 -0.15625 -0.125 -0.15625 -0.125 -0.21875 -0.1875 -0.21875 -0.1875 -0.15625 -0.125 -0.15625 -0.125 -0.09375 -0.0625 -0.09375 -0.0625 -0.03125 0 -0.03125 0 -0.09375 -0.0625 -0.09375 -0.0625 -0.03125 0 -0.03125 0 0.03125 0.03125 0.0625 0.0625 0.03125 0.0625 0.09375 0.09375 0.125 0.125 0.09375 0.125 0.03125 0.0625 0.03125 0.0625 0.09375 0.125 0.09375 0.125 0.15625 0.15625 0.1875 0.1875 0.15625 0.1875 0.21875 0.21875 0.25 0.25 0.21875 0.25 0.15625 0.1875 0.15625 0.1875 0.21875 0.25 0.21875 0.25 0.03125 0.0625 0.03125 0.0625 0.09375 0.125 0.09375 0.125 0.03125 0.0625 0.03125 0.0625 0.09375 0.125 0.09375 0.125 0.15625 0.1875 0.15625 0.1875 0.21875 0.25 0.21875 0.25 0.15625 0.1875 0.15625 0.1875 0.21875 0.25 0.21875 0.25 0.28125 0.28125 0.3125 0.3125 0.28125 0.3125 0.34375 0.34375 0.375 0.375 0.34375 0.375 0.28125 0.3125 0.28125 0.3125 0.34375 0.375 0.34375 0.375 0.40625 0.40625 0.4375 0.4375 0.40625 0.4375 0.46875 0.46875 0.5 0.5 0.46875 0.5 0.40625 0.4375 0.40625 0.4375 0.46875 0.5 0.46875 0.5 0.28125 0.3125 0.28125 0.3125 0.34375 0.375 0.34375 0.375 0.28125 0.3125 0.28125 0.3125 0.34375 0.375 0.34375 0.375 0.40625 0.4375 0.40625 0.4375 0.46875 0.5 0.46875 0.5 0.40625 0.4375 0.40625 0.4375 0.46875 0.5 0.46875 0.5 0.03125 0.0625 0.03125 0.0625 0.09375 0.125 0.09375 0.125 0.03125 0.0625 0.03125 0.0625 0.09375 0.125 0.09375 0.125 0.15625 0.1875 0.15625 0.1875 0.21875 0.25 0.21875 0.25 0.15625 0.1875 0.15625 0.1875 0.21875 0.25 0.21875 0.25 0.03125 0.0625 0.03125 0.0625 0.09375 0.125 0.09375 0.125 0.03125 0.0625 0.03125 0.0625 0.09375 0.125 0.09375 0.125 0.15625 0.1875 0.15625 0.1875 0.21875 0.25 0.21875 0.25 0.15625 0.1875 0.15625 0.1875 0.21875 0.25 0.21875 0.25 0.28125 0.3125 0.28125 0.3125 0.34375 0.375 0.34375 0.375 0.28125 0.3125 0.28125 0.3125 0.34375 0.375 0.34375 0.375 0.40625 0.4375 0.40625 0.4375 0.46875 0.5 0.46875 0.5 0.40625 0.4375 0.40625 0.4375 0.46875 0.5 0.46875 0.5 0.28125 0.3125 0.28125 0.3125 0.34375 0.375 0.34375 0.375 0.28125 0.3125 0.28125 0.3125 0.34375 0.375 0.34375 0.375 0.40625 0.4375 0.40625 0.4375 0.46875 0.5 0.46875 0.5 0.40625 0.4375 0.40625 0.4375 0.46875 0.5 0.46875 0.5 0.53125 0.53125 0.5625 0.5625 0.53125 0.5625 0.59375 0.59375 0.625 0.625 0.59375 0.625 0.53125 0.5625 0.53125 0.5625 0.59375 0.625 0.59375 0.625 0.65625 0.65625 0.6875 0.6875 0.65625 0.6875 0.71875 0.71875 0.75 0.75 0.71875 0.75 0.65625 0.6875 0.65625 0.6875 0.71875 0.75 0.71875 0.75 0.53125 0.5625 0.53125 0.5625 0.59375 0.625 0.59375 0.625 0.53125 0.5625 0.53125 0.5625 0.59375 0.625 0.59375 0.625 0.65625 0.6875 0.65625 0.6875 0.71875 0.75 0.71875 0.75 0.65625 0.6875 0.65625 0.6875 0.71875 0.75 0.71875 0.75 0.78125 0.78125 0.8125 0.8125 0.78125 0.8125 0.84375 0.84375 0.875 0.875 0.84375 0.875 0.78125 0.8125 0.78125 0.8125 0.84375 0.875 0.84375 0.875 0.90625 0.90625 0.9375 0.9375 0.90625 0.9375 0.96875 0.96875 1 1 0.96875 1 0.90625 0.9375 0.90625 0.9375 0.96875 1 0.96875 1 0.78125 0.8125 0.78125 0.8125 0.84375 0.875 0.84375 0.875 0.78125 0.8125 0.78125 0.8125 0.84375 0.875 0.84375 0.875 0.90625 0.9375 0.90625 0.9375 0.96875 1 0.96875 1 0.90625 0.9375 0.90625 0.9375 0.96875 1 0.96875 1 0.53125 0.5625 0.53125 0.5625 0.59375 0.625 0.59375 0.625 0.53125 0.5625 0.53125 0.5625 0.59375 0.625 0.59375 0.625 0.65625 0.6875 0.65625 0.6875 0.71875 0.75 0.71875 0.75 0.65625 0.6875 0.65625 0.6875 0.71875 0.75 0.71875 0.75 0.53125 0.5625 0.53125 0.5625 0.59375 0.625 0.59375 0.625 0.53125 0.5625 0.53125 0.5625 0.59375 0.625 0.59375 0.625 0.65625 0.6875 0.65625 0.6875 0.71875 0.75 0.71875 0.75 0.65625 0.6875 0.65625 0.6875 0.71875 0.75 0.71875 0.75 0.78125 0.8125 0.78125 0.8125 0.84375 0.875 0.84375 0.875 0.78125 0.8125 0.78125 0.8125 0.84375 0.875 0.84375 0.875 0.90625 0.9375 0.90625 0.9375 0.96875 1 0.96875 1 0.90625 0.9375 0.90625 0.9375 0.96875 1 0.96875 1 0.78125 0.8125 0.78125 0.8125 0.84375 0.875 0.84375 0.875 0.78125 0.8125 0.78125 0.8125 0.84375 0.875 0.84375 0.875 0.90625 0.9375 0.90625 0.9375 0.96875 1 0.96875 1 0.90625 0.9375 0.90625 0.9375 0.96875 1 0.96875 1 0.03125 0.0625 0.03125 0.0625 0.09375 0.125 0.09375 0.125 0.03125 0.0625 0.03125 0.0625 0.09375 0.125 0.09375 0.125 0.15625 0.1875 0.15625 0.1875 0.21875 0.25 0.21875 0.25 0.15625 0.1875 0.15625 0.1875 0.21875 0.25 0.21875 0.25 0.03125 0.0625 0.03125 0.0625 0.09375 0.125 0.09375 0.125 0.03125 0.0625 0.03125 0.0625 0.09375 0.125 0.09375 0.125 0.15625 0.1875 0.15625 0.1875 0.21875 0.25 0.21875 0.25 0.15625 0.1875 0.15625 0.1875 0.21875 0.25 0.21875 0.25 0.28125 0.3125 0.28125 0.3125 0.34375 0.375 0.34375 0.375 0.28125 0.3125 0.28125 0.3125 0.34375 0.375 0.34375 0.375 0.40625 0.4375 0.40625 0.4375 0.46875 0.5 0.46875 0.5 0.40625 0.4375 0.40625 0.4375 0.46875 0.5 0.46875 0.5 0.28125 0.3125 0.28125 0.3125 0.34375 0.375 0.34375 0.375 0.28125 0.3125 0.28125 0.3125 0.34375 0.375 0.34375 0.375 0.40625 0.4375 0.40625 0.4375 0.46875 0.5 0.46875 0.5 0.40625 0.4375 0.40625 0.4375 0.46875 0.5 0.46875 0.5 0.03125 0.0625 0.03125 0.0625 0.09375 0.125 0.09375 0.125 0.03125 0.0625 0.03125 0.0625 0.09375 0.125 0.09375 0.125 0.15625 0.1875 0.15625 0.1875 0.21875 0.25 0.21875 0.25 0.15625 0.1875 0.15625 0.1875 0.21875 0.25 0.21875 0.25 0.03125 0.0625 0.03125 0.0625 0.09375 0.125 0.09375 0.125 0.03125 0.0625 0.03125 0.0625 0.09375 0.125 0.09375 0.125 0.15625 0.1875 0.15625 0.1875 0.21875 0.25 0.21875 0.25 0.15625 0.1875 0.15625 0.1875 0.21875 0.25 0.21875 0.25 0.28125 0.3125 0.28125 0.3125 0.34375 0.375 0.34375 0.375 0.28125 0.3125 0.28125 0.3125 0.34375 0.375 0.34375 0.375 0.40625 0.4375 0.40625 0.4375 0.46875 0.5 0.46875 0.5 0.40625 0.4375 0.40625 0.4375 0.46875 0.5 0.46875 0.5 0.28125 0.3125 0.28125 0.3125 0.34375 0.375 0.34375 0.375 0.28125 0.3125 0.28125 0.3125 0.34375 0.375 0.34375 0.375 0.40625 0.4375 0.40625 0.4375 0.46875 0.5 0.46875 0.5 0.40625 0.4375 0.40625 0.4375 0.46875 0.5 0.46875 0.5 0.53125 0.5625 0.53125 0.5625 0.59375 0.625 0.59375 0.625 0.53125 0.5625 0.53125 0.5625 0.59375 0.625 0.59375 0.625 0.65625 0.6875 0.65625 0.6875 0.71875 0.75 0.71875 0.75 0.65625 0.6875 0.65625 0.6875 0.71875 0.75 0.71875 0.75 0.53125 0.5625 0.53125 0.5625 0.59375 0.625 0.59375 0.625 0.53125 0.5625 0.53125 0.5625 0.59375 0.625 0.59375 0.625 0.65625 0.6875 0.65625 0.6875 0.71875 0.75 0.71875 0.75 0.65625 0.6875 0.65625 0.6875 0.71875 0.75 0.71875 0.75 0.78125 0.8125 0.78125 0.8125 0.84375 0.875 0.84375 0.875 0.78125 0.8125 0.78125 0.8125 0.84375 0.875 0.84375 0.875 0.90625 0.9375 0.90625 0.9375 0.96875 1 0.96875 1 0.90625 0.9375 0.90625 0.9375 0.96875 1 0.96875 1 0.78125 0.8125 0.78125 0.8125 0.84375 0.875 0.84375 0.875 0.78125 0.8125 0.78125 0.8125 0.84375 0.875 0.84375 0.875 0.90625 0.9375 0.90625 0.9375 0.96875 1 0.96875 1 0.90625 0.9375 0.90625 0.9375 0.96875 1 0.96875 1 0.53125 0.5625 0.53125 0.5625 0.59375 0.625 0.59375 0.625 0.53125 0.5625 0.53125 0.5625 0.59375 0.625 0.59375 0.625 0.65625 0.6875 0.65625 0.6875 0.71875 0.75 0.71875 0.75 0.65625 0.6875 0.65625 0.6875 0.71875 0.75 0.71875 0.75 0.53125 0.5625 0.53125 0.5625 0.59375 0.625 0.59375 0.625 0.53125 0.5625 0.53125 0.5625 0.59375 0.625 0.59375 0.625 0.65625 0.6875 0.65625 0.6875 0.71875 0.75 0.71875 0.75 0.65625 0.6875 0.65625 0.6875 0.71875 0.75 0.71875 0.75 0.78125 0.8125 0.78125 0.8125 0.84375 0.875 0.84375 0.875 0.78125 0.8125 0.78125 0.8125 0.84375 0.875 0.84375 0.875 0.90625 0.9375 0.90625 0.9375 0.96875 1 0.96875 1 0.90625 0.9375 0.90625 0.9375 0.96875 1 0.96875 1 0.78125 0.8125 0.78125 0.8125 0.84375 0.875 0.84375 0.875 0.78125 0.8125 0.78125 0.8125 0.84375 0.875 0.84375 0.875 0.90625 0.9375 0.90625 0.9375 0.96875 1 0.96875 1 0.90625 0.9375 0.90625 0.9375 0.96875 1 0.96875 1 -0.96875 -0.9375 -0.96875 -0.9375 -0.90625 -0.875 -0.90625 -0.875 -0.96875 -0.9375 -0.96875 -0.9375 -0.90625 -0.875 -0.90625 -0.875 -0.84375 -0.8125 -0.84375 -0.8125 -0.78125 -0.75 -0.78125 -0.75 -0.84375 -0.8125 -0.84375 -0.8125 -0.78125 -0.75 -0.78125 -0.75 -0.96875 -0.9375 -0.96875 -0.9375 -0.90625 -0.875 -0.90625 -0.875 -0.96875 -0.9375 -0.96875 -0.9375 -0.90625 -0.875 -0.90625 -0.875 -0.84375 -0.8125 -0.84375 -0.8125 -0.78125 -0.75 -0.78125 -0.75 -0.84375 -0.8125 -0.84375 -0.8125 -0.78125 -0.75 -0.78125 -0.75 -0.71875 -0.6875 -0.71875 -0.6875 -0.65625 -0.625 -0.65625 -0.625 -0.71875 -0.6875 -0.71875 -0.6875 -0.65625 -0.625 -0.65625 -0.625 -0.59375 -0.5625 -0.59375 -0.5625 -0.53125 -0.5 -0.53125 -0.5 -0.59375 -0.5625 -0.59375 -0.5625 -0.53125 -0.5 -0.53125 -0.5 -0.71875 -0.6875 -0.71875 -0.6875 -0.65625 -0.625 -0.65625 -0.625 -0.71875 -0.6875 -0.71875 -0.6875 -0.65625 -0.625 -0.65625 -0.625 -0.59375 -0.5625 -0.59375 -0.5625 -0.53125 -0.5 -0.53125 -0.5 -0.59375 -0.5625 -0.59375 -0.5625 -0.53125 -0.5 -0.53125 -0.5 -0.96875 -0.9375 -0.96875 -0.9375 -0.90625 -0.875 -0.90625 -0.875 -0.96875 -0.9375 -0.96875 -0.9375 -0.90625 -0.875 -0.90625 -0.875 -0.84375 -0.8125 -0.84375 -0.8125 -0.78125 -0.75 -0.78125 -0.75 -0.84375 -0.8125 -0.84375 -0.8125 -0.78125 -0.75 -0.78125 -0.75 -0.96875 -0.9375 -0.96875 -0.9375 -0.90625 -0.875 -0.90625 -0.875 -0.96875 -0.9375 -0.96875 -0.9375 -0.90625 -0.875 -0.90625 -0.875 -0.84375 -0.8125 -0.84375 -0.8125 -0.78125 -0.75 -0.78125 -0.75 -0.84375 -0.8125 -0.84375 -0.8125 -0.78125 -0.75 -0.78125 -0.75 -0.71875 -0.6875 -0.71875 -0.6875 -0.65625 -0.625 -0.65625 -0.625 -0.71875 -0.6875 -0.71875 -0.6875 -0.65625 -0.625 -0.65625 -0.625 -0.59375 -0.5625 -0.59375 -0.5625 -0.53125 -0.5 -0.53125 -0.5 -0.59375 -0.5625 -0.59375 -0.5625 -0.53125 -0.5 -0.53125 -0.5 -0.71875 -0.6875 -0.71875 -0.6875 -0.65625 -0.625 -0.65625 -0.625 -0.71875 -0.6875 -0.71875 -0.6875 -0.65625 -0.625 -0.65625 -0.625 -0.59375 -0.5625 -0.59375 -0.5625 -0.53125 -0.5 -0.53125 -0.5 -0.59375 -0.5625 -0.59375 -0.5625 -0.53125 -0.5 -0.53125 -0.5 -0.46875 -0.4375 -0.46875 -0.4375 -0.40625 -0.375 -0.40625 -0.375 -0.46875 -0.4375 -0.46875 -0.4375 -0.40625 -0.375 -0.40625 -0.375 -0.34375 -0.3125 -0.34375 -0.3125 -0.28125 -0.25 -0.28125 -0.25 -0.34375 -0.3125 -0.34375 -0.3125 -0.28125 -0.25 -0.28125 -0.25 -0.46875 -0.4375 -0.46875 -0.4375 -0.40625 -0.375 -0.40625 -0.375 -0.46875 -0.4375 -0.46875 -0.4375 -0.40625 -0.375 -0.40625 -0.375 -0.34375 -0.3125 -0.34375 -0.3125 -0.28125 -0.25 -0.28125 -0.25 -0.34375 -0.3125 -0.34375 -0.3125 -0.28125 -0.25 -0.28125 -0.25 -0.21875 -0.1875 -0.21875 -0.1875 -0.15625 -0.125 -0.15625 -0.125 -0.21875 -0.1875 -0.21875 -0.1875 -0.15625 -0.125 -0.15625 -0.125 -0.09375 -0.0625 -0.09375 -0.0625 -0.03125 0 -0.03125 0 -0.09375 -0.0625 -0.09375 -0.0625 -0.03125 0 -0.03125 0 -0.21875 -0.1875 -0.21875 -0.1875 -0.15625 -0.125 -0.15625 -0.125 -0.21875 -0.1875 -0.21875 -0.1875 -0.15625 -0.125 -0.15625 -0.125 -0.09375 -0.0625 -0.09375 -0.0625 -0.03125 0 -0.03125 0 -0.09375 -0.0625 -0.09375 -0.0625 -0.03125 0 -0.03125 0 -0.46875 -0.4375 -0.46875 -0.4375 -0.40625 -0.375 -0.40625 -0.375 -0.46875 -0.4375 -0.46875 -0.4375 -0.40625 -0.375 -0.40625 -0.375 -0.34375 -0.3125 -0.34375 -0.3125 -0.28125 -0.25 -0.28125 -0.25 -0.34375 -0.3125 -0.34375 -0.3125 -0.28125 -0.25 -0.28125 -0.25 -0.46875 -0.4375 -0.46875 -0.4375 -0.40625 -0.375 -0.40625 -0.375 -0.46875 -0.4375 -0.46875 -0.4375 -0.40625 -0.375 -0.40625 -0.375 -0.34375 -0.3125 -0.34375 -0.3125 -0.28125 -0.25 -0.28125 -0.25 -0.34375 -0.3125 -0.34375 -0.3125 -0.28125 -0.25 -0.28125 -0.25 -0.21875 -0.1875 -0.21875 -0.1875 -0.15625 -0.125 -0.15625 -0.125 -0.21875 -0.1875 -0.21875 -0.1875 -0.15625 -0.125 -0.15625 -0.125 -0.09375 -0.0625 -0.09375 -0.0625 -0.03125 0 -0.03125 0 -0.09375 -0.0625 -0.09375 -0.0625 -0.03125 0 -0.03125 0 -0.21875 -0.1875 -0.21875 -0.1875 -0.15625 -0.125 -0.15625 -0.125 -0.21875 -0.1875 -0.21875 -0.1875 -0.15625 -0.125 -0.15625 -0.125 -0.09375 -0.0625 -0.09375 -0.0625 -0.03125 0 -0.03125 0 -0.09375 -0.0625 -0.09375 -0.0625 -0.03125 0 -0.03125 0 -0.96875 -0.9375 -0.96875 -0.9375 -0.90625 -0.875 -0.90625 -0.875 -0.96875 -0.9375 -0.96875 -0.9375 -0.90625 -0.875 -0.90625 -0.875 -0.84375 -0.8125 -0.84375 -0.8125 -0.78125 -0.75 -0.78125 -0.75 -0.84375 -0.8125 -0.84375 -0.8125 -0.78125 -0.75 -0.78125 -0.75 -0.96875 -0.9375 -0.96875 -0.9375 -0.90625 -0.875 -0.90625 -0.875 -0.96875 -0.9375 -0.96875 -0.9375 -0.90625 -0.875 -0.90625 -0.875 -0.84375 -0.8125 -0.84375 -0.8125 -0.78125 -0.75 -0.78125 -0.75 -0.84375 -0.8125 -0.84375 -0.8125 -0.78125 -0.75 -0.78125 -0.75 -0.71875 -0.6875 -0.71875 -0.6875 -0.65625 -0.625 -0.65625 -0.625 -0.71875 -0.6875 -0.71875 -0.6875 -0.65625 -0.625 -0.65625 -0.625 -0.59375 -0.5625 -0.59375 -0.5625 -0.53125 -0.5 -0.53125 -0.5 -0.59375 -0.5625 -0.59375 -0.5625 -0.53125 -0.5 -0.53125 -0.5 -0.71875 -0.6875 -0.71875 -0.6875 -0.65625 -0.625 -0.65625 -0.625 -0.71875 -0.6875 -0.71875 -0.6875 -0.65625 -0.625 -0.65625 -0.625 -0.59375 -0.5625 -0.59375 -0.5625 -0.53125 -0.5 -0.53125 -0.5 -0.59375 -0.5625 -0.59375 -0.5625 -0.53125 -0.5 -0.53125 -0.5 -0.96875 -0.9375 -0.96875 -0.9375 -0.90625 -0.875 -0.90625 -0.875 -0.96875 -0.9375 -0.96875 -0.9375 -0.90625 -0.875 -0.90625 -0.875 -0.84375 -0.8125 -0.84375 -0.8125 -0.78125 -0.75 -0.78125 -0.75 -0.84375 -0.8125 -0.84375 -0.8125 -0.78125 -0.75 -0.78125 -0.75 -0.96875 -0.9375 -0.96875 -0.9375 -0.90625 -0.875 -0.90625 -0.875 -0.96875 -0.9375 -0.90625 -0.875 -0.84375 -0.8125 -0.84375 -0.8125 -0.78125 -0.75 -0.78125 -0.75 -0.84375 -0.8125 -0.78125 -0.75 -0.71875 -0.6875 -0.71875 -0.6875 -0.65625 -0.625 -0.65625 -0.625 -0.71875 -0.6875 -0.71875 -0.6875 -0.65625 -0.625 -0.65625 -0.625 -0.59375 -0.5625 -0.59375 -0.5625 -0.53125 -0.5 -0.53125 -0.5 -0.59375 -0.5625 -0.59375 -0.5625 -0.53125 -0.5 -0.53125 -0.5 -0.71875 -0.6875 -0.71875 -0.6875 -0.65625 -0.625 -0.65625 -0.625 -0.71875 -0.6875 -0.65625 -0.625 -0.59375 -0.5625 -0.59375 -0.5625 -0.53125 -0.5 -0.53125 -0.5 -0.59375 -0.5625 -0.53125 -0.5 -0.46875 -0.4375 -0.46875 -0.4375 -0.40625 -0.375 -0.40625 -0.375 -0.46875 -0.4375 -0.46875 -0.4375 -0.40625 -0.375 -0.40625 -0.375 -0.34375 -0.3125 -0.34375 -0.3125 -0.28125 -0.25 -0.28125 -0.25 -0.34375 -0.3125 -0.34375 -0.3125 -0.28125 -0.25 -0.28125 -0.25 -0.46875 -0.4375 -0.46875 -0.4375 -0.40625 -0.375 -0.40625 -0.375 -0.46875 -0.4375 -0.46875 -0.4375 -0.40625 -0.375 -0.40625 -0.375 -0.34375 -0.3125 -0.34375 -0.3125 -0.28125 -0.25 -0.28125 -0.25 -0.34375 -0.3125 -0.34375 -0.3125 -0.28125 -0.25 -0.28125 -0.25 -0.21875 -0.1875 -0.21875 -0.1875 -0.15625 -0.125 -0.15625 -0.125 -0.21875 -0.1875 -0.21875 -0.1875 -0.15625 -0.125 -0.15625 -0.125 -0.09375 -0.0625 -0.09375 -0.0625 -0.03125 0 -0.03125 0 -0.09375 -0.0625 -0.09375 -0.0625 -0.03125 0 -0.03125 0 -0.21875 -0.1875 -0.21875 -0.1875 -0.15625 -0.125 -0.15625 -0.125 -0.21875 -0.1875 -0.21875 -0.1875 -0.15625 -0.125 -0.15625 -0.125 -0.09375 -0.0625 -0.09375 -0.0625 -0.03125 0 -0.03125 0 -0.09375 -0.0625 -0.09375 -0.0625 -0.03125 0 -0.03125 0 -0.46875 -0.4375 -0.46875 -0.4375 -0.40625 -0.375 -0.40625 -0.375 -0.46875 -0.4375 -0.46875 -0.4375 -0.40625 -0.375 -0.40625 -0.375 -0.34375 -0.3125 -0.34375 -0.3125 -0.28125 -0.25 -0.28125 -0.25 -0.34375 -0.3125 -0.34375 -0.3125 -0.28125 -0.25 -0.28125 -0.25 -0.46875 -0.4375 -0.46875 -0.4375 -0.40625 -0.375 -0.40625 -0.375 -0.46875 -0.4375 -0.40625 -0.375 -0.34375 -0.3125 -0.34375 -0.3125 -0.28125 -0.25 -0.28125 -0.25 -0.34375 -0.3125 -0.28125 -0.25 -0.21875 -0.1875 -0.21875 -0.1875 -0.15625 -0.125 -0.15625 -0.125 -0.21875 -0.1875 -0.21875 -0.1875 -0.15625 -0.125 -0.15625 -0.125 -0.09375 -0.0625 -0.09375 -0.0625 -0.03125 0 -0.03125 0 -0.09375 -0.0625 -0.09375 -0.0625 -0.03125 0 -0.03125 0 -0.21875 -0.1875 -0.21875 -0.1875 -0.15625 -0.125 -0.15625 -0.125 -0.21875 -0.1875 -0.15625 -0.125 -0.09375 -0.0625 -0.09375 -0.0625 -0.03125 0 -0.03125 0 -0.09375 -0.0625 -0.03125 0 0.03125 0.0625 0.03125 0.0625 0.09375 0.125 0.09375 0.125 0.03125 0.0625 0.03125 0.0625 0.09375 0.125 0.09375 0.125 0.15625 0.1875 0.15625 0.1875 0.21875 0.25 0.21875 0.25 0.15625 0.1875 0.15625 0.1875 0.21875 0.25 0.21875 0.25 0.03125 0.0625 0.03125 0.0625 0.09375 0.125 0.09375 0.125 0.03125 0.0625 0.03125 0.0625 0.09375 0.125 0.09375 0.125 0.15625 0.1875 0.15625 0.1875 0.21875 0.25 0.21875 0.25 0.15625 0.1875 0.15625 0.1875 0.21875 0.25 0.21875 0.25 0.28125 0.3125 0.28125 0.3125 0.34375 0.375 0.34375 0.375 0.28125 0.3125 0.28125 0.3125 0.34375 0.375 0.34375 0.375 0.40625 0.4375 0.40625 0.4375 0.46875 0.5 0.46875 0.5 0.40625 0.4375 0.40625 0.4375 0.46875 0.5 0.46875 0.5 0.28125 0.3125 0.28125 0.3125 0.34375 0.375 0.34375 0.375 0.28125 0.3125 0.28125 0.3125 0.34375 0.375 0.34375 0.375 0.40625 0.4375 0.40625 0.4375 0.46875 0.5 0.46875 0.5 0.40625 0.4375 0.40625 0.4375 0.46875 0.5 0.46875 0.5 0.03125 0.0625 0.03125 0.0625 0.09375 0.125 0.09375 0.125 0.03125 0.0625 0.03125 0.0625 0.09375 0.125 0.09375 0.125 0.15625 0.1875 0.15625 0.1875 0.21875 0.25 0.21875 0.25 0.15625 0.1875 0.15625 0.1875 0.21875 0.25 0.21875 0.25 0.03125 0.0625 0.03125 0.0625 0.09375 0.125 0.09375 0.125 0.03125 0.0625 0.03125 0.0625 0.09375 0.125 0.09375 0.125 0.15625 0.1875 0.15625 0.1875 0.21875 0.25 0.21875 0.25 0.15625 0.1875 0.15625 0.1875 0.21875 0.25 0.21875 0.25 0.28125 0.3125 0.28125 0.3125 0.34375 0.375 0.34375 0.375 0.28125 0.3125 0.28125 0.3125 0.34375 0.375 0.34375 0.375 0.40625 0.4375 0.40625 0.4375 0.46875 0.5 0.46875 0.5 0.40625 0.4375 0.40625 0.4375 0.46875 0.5 0.46875 0.5 0.28125 0.3125 0.28125 0.3125 0.34375 0.375 0.34375 0.375 0.28125 0.3125 0.28125 0.3125 0.34375 0.375 0.34375 0.375 0.40625 0.4375 0.40625 0.4375 0.46875 0.5 0.46875 0.5 0.40625 0.4375 0.40625 0.4375 0.46875 0.5 0.46875 0.5 0.53125 0.5625 0.53125 0.5625 0.59375 0.625 0.59375 0.625 0.53125 0.5625 0.53125 0.5625 0.59375 0.625 0.59375 0.625 0.65625 0.6875 0.65625 0.6875 0.71875 0.75 0.71875 0.75 0.65625 0.6875 0.65625 0.6875 0.71875 0.75 0.71875 0.75 0.53125 0.5625 0.53125 0.5625 0.59375 0.625 0.59375 0.625 0.53125 0.5625 0.53125 0.5625 0.59375 0.625 0.59375 0.625 0.65625 0.6875 0.65625 0.6875 0.71875 0.75 0.71875 0.75 0.65625 0.6875 0.65625 0.6875 0.71875 0.75 0.71875 0.75 0.78125 0.8125 0.78125 0.8125 0.84375 0.875 0.84375 0.875 0.78125 0.8125 0.78125 0.8125 0.84375 0.875 0.84375 0.875 0.90625 0.9375 0.90625 0.9375 0.96875 1 0.96875 1 0.90625 0.9375 0.90625 0.9375 0.96875 1 0.96875 1 0.78125 0.8125 0.78125 0.8125 0.84375 0.875 0.84375 0.875 0.78125 0.8125 0.78125 0.8125 0.84375 0.875 0.84375 0.875 0.90625 0.9375 0.90625 0.9375 0.96875 1 0.96875 1 0.90625 0.9375 0.90625 0.9375 0.96875 1 0.96875 1 0.53125 0.5625 0.53125 0.5625 0.59375 0.625 0.59375 0.625 0.53125 0.5625 0.53125 0.5625 0.59375 0.625 0.59375 0.625 0.65625 0.6875 0.65625 0.6875 0.71875 0.75 0.71875 0.75 0.65625 0.6875 0.65625 0.6875 0.71875 0.75 0.71875 0.75 0.53125 0.5625 0.53125 0.5625 0.59375 0.625 0.59375 0.625 0.53125 0.5625 0.53125 0.5625 0.59375 0.625 0.59375 0.625 0.65625 0.6875 0.65625 0.6875 0.71875 0.75 0.71875 0.75 0.65625 0.6875 0.65625 0.6875 0.71875 0.75 0.71875 0.75 0.78125 0.8125 0.78125 0.8125 0.84375 0.875 0.84375 0.875 0.78125 0.8125 0.78125 0.8125 0.84375 0.875 0.84375 0.875 0.90625 0.9375 0.90625 0.9375 0.96875 1 0.96875 1 0.90625 0.9375 0.90625 0.9375 0.96875 1 0.96875 1 0.78125 0.8125 0.78125 0.8125 0.84375 0.875 0.84375 0.875 0.78125 0.8125 0.78125 0.8125 0.84375 0.875 0.84375 0.875 0.90625 0.9375 0.90625 0.9375 0.96875 1 0.96875 1 0.90625 0.9375 0.90625 0.9375 0.96875 1 0.96875 1 0.03125 0.0625 0.03125 0.0625 0.09375 0.125 0.09375 0.125 0.03125 0.0625 0.03125 0.0625 0.09375 0.125 0.09375 0.125 0.15625 0.1875 0.15625 0.1875 0.21875 0.25 0.21875 0.25 0.15625 0.1875 0.15625 0.1875 0.21875 0.25 0.21875 0.25 0.03125 0.0625 0.03125 0.0625 0.09375 0.125 0.09375 0.125 0.03125 0.0625 0.03125 0.0625 0.09375 0.125 0.09375 0.125 0.15625 0.1875 0.15625 0.1875 0.21875 0.25 0.21875 0.25 0.15625 0.1875 0.15625 0.1875 0.21875 0.25 0.21875 0.25 0.28125 0.3125 0.28125 0.3125 0.34375 0.375 0.34375 0.375 0.28125 0.3125 0.28125 0.3125 0.34375 0.375 0.34375 0.375 0.40625 0.4375 0.40625 0.4375 0.46875 0.5 0.46875 0.5 0.40625 0.4375 0.40625 0.4375 0.46875 0.5 0.46875 0.5 0.28125 0.3125 0.28125 0.3125 0.34375 0.375 0.34375 0.375 0.28125 0.3125 0.28125 0.3125 0.34375 0.375 0.34375 0.375 0.40625 0.4375 0.40625 0.4375 0.46875 0.5 0.46875 0.5 0.40625 0.4375 0.40625 0.4375 0.46875 0.5 0.46875 0.5 0.03125 0.0625 0.03125 0.0625 0.09375 0.125 0.09375 0.125 0.03125 0.0625 0.03125 0.0625 0.09375 0.125 0.09375 0.125 0.15625 0.1875 0.15625 0.1875 0.21875 0.25 0.21875 0.25 0.15625 0.1875 0.15625 0.1875 0.21875 0.25 0.21875 0.25 0.03125 0.0625 0.03125 0.0625 0.09375 0.125 0.09375 0.125 0.03125 0.0625 0.09375 0.125 0.15625 0.1875 0.15625 0.1875 0.21875 0.25 0.21875 0.25 0.15625 0.1875 0.21875 0.25 0.28125 0.3125 0.28125 0.3125 0.34375 0.375 0.34375 0.375 0.28125 0.3125 0.28125 0.3125 0.34375 0.375 0.34375 0.375 0.40625 0.4375 0.40625 0.4375 0.46875 0.5 0.46875 0.5 0.40625 0.4375 0.40625 0.4375 0.46875 0.5 0.46875 0.5 0.28125 0.3125 0.28125 0.3125 0.34375 0.375 0.34375 0.375 0.28125 0.3125 0.34375 0.375 0.40625 0.4375 0.40625 0.4375 0.46875 0.5 0.46875 0.5 0.40625 0.4375 0.46875 0.5 0.53125 0.5625 0.53125 0.5625 0.59375 0.625 0.59375 0.625 0.53125 0.5625 0.53125 0.5625 0.59375 0.625 0.59375 0.625 0.65625 0.6875 0.65625 0.6875 0.71875 0.75 0.71875 0.75 0.65625 0.6875 0.65625 0.6875 0.71875 0.75 0.71875 0.75 0.53125 0.5625 0.53125 0.5625 0.59375 0.625 0.59375 0.625 0.53125 0.5625 0.53125 0.5625 0.59375 0.625 0.59375 0.625 0.65625 0.6875 0.65625 0.6875 0.71875 0.75 0.71875 0.75 0.65625 0.6875 0.65625 0.6875 0.71875 0.75 0.71875 0.75 0.78125 0.8125 0.78125 0.8125 0.84375 0.875 0.84375 0.875 0.78125 0.8125 0.78125 0.8125 0.84375 0.875 0.84375 0.875 0.90625 0.9375 0.90625 0.9375 0.96875 1 0.96875 1 0.90625 0.9375 0.90625 0.9375 0.96875 1 0.