<VTKFile type='UnstructuredGrid' version='0.1' byte_order='LittleEndian'>
<!-- surface_branch_glue -->
  <UnstructuredGrid>
    <Piece NumberOfPoints='4082' NumberOfCells='7136'>
      <PointData Scalars='f(x,y) x y' Normals='NORMALS'>
        <DataArray Name='NORMALS' type='Float64' format='ascii' NumberOfComponents='3'>
          -0.6 -0.7875 0.1408678459 -0.6071136475 -0.7946136475 0 -0.6 -0.7999992371 0 -0.6163124084 -0.7875 0 -0.6375 -0.75 0.1763341997 -0.648614502 -0.761114502 0 -0.6375 -0.7704483032 0 -0.6614364624 -0.75 0 -0.61875 -0.76875 0.1617772388 -0.6281158447 -0.7781158447 0 -0.6 -0.75 0.2783882181 -0.75 -0.6375 0.1763341997 -0.761114502 -0.648614502 0 -0.75 -0.6614364624 0 -0.7704483032 -0.6375 0 -0.7875 -0.6 0.1408678459 -0.7946136475 -0.6071136475 0 -0.7875 -0.6163124084 0 -0.7999992371 -0.6 0 -0.76875 -0.61875 0.1617772388 -0.7781158447 -0.6281158447 0 -0.75 -0.6 0.2783882181 -0.675 -0.7125 0.1916213715 -0.6881080627 -0.7256080627 0 -0.675 -0.7378166199 0 -0.7016716003 -0.7125 0 -0.7125 -0.675 0.1916213715 -0.7256080627 -0.6881080627 0 -0.7125 -0.7016716003 0 -0.7378166199 -0.675 0 -0.69375 -0.69375 0.1934473443 -0.7071052551 -0.7071052551 0 -0.675 -0.675 0.2979093822 -0.65625 -0.73125 0.1860359508 -0.6686096191 -0.7436096191 0 -0.6375 -0.7125 0.293150985 -0.61875 -0.73125 0.2870921019 -0.6 -0.7125 0.3637908053 -0.65625 -0.69375 0.2967269368 -0.6375 -0.675 0.371441449 -0.61875 -0.69375 0.3685910674 -0.6 -0.675 0.4293891009 -0.73125 -0.65625 0.1860359508 -0.7436096191 -0.6686096191 0 -0.7125 -0.6375 0.293150985 -0.69375 -0.65625 0.2967269368 -0.675 -0.6375 0.371441449 -0.73125 -0.61875 0.2870921019 -0.7125 -0.6 0.3637908053 -0.69375 -0.61875 0.3685910674 -0.675 -0.6 0.4293891009 -0.6375 -0.6375 0.4326517075 -0.6 -0.6 0.5291502622 -0.4125 -0.9 0.1408678459 -0.4200141907 -0.9075141907 0 -0.4125 -0.9109565735 0 -0.4358894348 -0.9 0 -0.39375 -0.91875 0.0293150985 -0.3940750122 -0.9190750122 0 -0.375 -0.9 0.2222048604 -0.375 -0.9270240784 0 -0.3929328918 -0.9195671082 0 -0.3375 -0.9375 0.08477912479 -0.3403106689 -0.9403106689 0 -0.3375 -0.9413246155 0 -0.3479850769 -0.9375 0 -0.3315696716 -0.9434303284 0 -0.3 -0.9375 0.1763341997 -0.312437439 -0.949937439 0 -0.3 -0.9539382935 0 -0.35625 -0.91875 0.1702479809 -0.367515564 -0.930015564 0 -0.3375 -0.9 0.2758509561 -0.31875 -0.91875 0.2330168985 -0.3 -0.9 0.316227766 -0.1875 -0.975 0.1192424002 -0.1935836792 -0.9810836792 0 -0.1875 -0.9822624207 0 -0.222203064 -0.975 0 -0.1785736084 -0.9839263916 0 -0.15 -0.975 0.1639359631 -0.161819458 -0.986819458 0 -0.15 -0.988684845 0 -0.28125 -0.95625 0.08052561704 -0.2838638306 -0.9588638306 0 -0.2625 -0.9375 0.228445836 -0.2625 -0.964931488 0 -0.2764823914 -0.9610176086 0 -0.24375 -0.95625 0.1617772388 -0.2545555115 -0.9670555115 0 -0.225 -0.9375 0.2654595073 -0.225 -0.974356842 0 -0.2258354187 -0.9741645813 0 -0.28125 -0.91875 0.277122491 -0.2625 -0.9 0.3479852727 -0.24375 -0.91875 0.310619341 -0.225 -0.9 0.3733296131 -0.20625 -0.95625 0.2074774084 -0.2244781494 -0.9744781494 0 -0.1875 -0.9375 0.293150985 -0.16875 -0.95625 0.2389756787 -0.15 -0.9375 0.3139964172 -0.20625 -0.91875 0.33668884 -0.1875 -0.9 0.393501906 -0.16875 -0.91875 0.3569620078 -0.15 -0.9 0.4092676386 -0.134021759 -0.990978241 0 -0.1125 -0.975 0.1916213715 -0.1291259766 -0.9916259766 0 -0.1125 -0.9936515808 0 -0.09375 -0.99375 0.06059599822 -0.09543457031 -0.9954345703 0 -0.075 -0.975 0.2091650066 -0.075 -0.9971832275 0 -0.09171524048 -0.9957847595 0 -0.05625 -0.99375 0.09642030388 -0.06065826416 -0.9981582642 0 -0.0375 -0.975 0.2190176933 -0.0375 -0.9992958069 0 -0.05131988525 -0.9986801147 0 -0.01875 -0.99375 0.1100426054 -0.02469406128 -0.9996940613 0 0 -0.975 0.2222048604 0 -0.9999984741 0 -0.0125793457 -0.9999206543 0 -0.1125 -0.9375 0.3292984968 -0.075 -0.9 0.4293891009 -0.0375 -0.9375 0.3459588126 0 -0.9 0.4358898944 -0.5625 -0.825 0.05448623679 -0.5635688782 -0.8260688782 0 -0.5625 -0.8267967224 0 -0.5651321411 -0.825 0 -0.5569633484 -0.8305366516 0 -0.525 -0.825 0.2091650066 -0.5410125732 -0.8410125732 0 -0.525 -0.8511016846 0 -0.4875 -0.8625 0.1357847561 -0.4942932129 -0.8692932129 0 -0.4875 -0.873122406 0 -0.5060554504 -0.8625 0 -0.46875 -0.88125 0.06059599822 -0.4701072693 -0.8826072693 0 -0.45 -0.8625 0.2315032397 -0.45 -0.8930282593 0 -0.4643463135 -0.8856536865 0 -0.50625 -0.84375 0.1783167827 -0.5179252625 -0.8554252625 0 -0.4875 -0.825 0.2858649157 -0.46875 -0.84375 0.2614562583 -0.45 -0.825 0.3418698583 -0.58125 -0.80625 0.1100426054 -0.5855987549 -0.8105987549 0 -0.5625 -0.7875 0.251868021 -0.54375 -0.80625 0.2330168985 -0.525 -0.7875 0.3228292893 -0.58125 -0.76875 0.2667805746 -0.5625 -0.75 0.3479852727 -0.54375 -0.76875 0.33668884 -0.525 -0.75 0.4023369235 -0.4875 -0.7875 0.3770775782 -0.45 -0.75 0.4847679857 -0.43125 -0.88125 0.1934473443 -0.4453536987 -0.8953536987 0 -0.4125 -0.8625 0.293150985 -0.39375 -0.88125 0.2614562583 -0.375 -0.8625 0.3398069305 -0.43125 -0.84375 0.3195455758 -0.4125 -0.825 0.3862884285 -0.39375 -0.84375 0.3647559115 -0.375 -0.825 0.4227883631 -0.3375 -0.8625 0.3770775782 -0.3 -0.825 0.4789311015 -0.4125 -0.7875 0.4579164771 -0.375 -0.75 0.5448623679 -0.3375 -0.7875 0.5156912836 -0.3 -0.75 0.5894913061 -0.5625 -0.7125 0.4194490434 -0.525 -0.675 0.5184110338 -0.4875 -0.7125 0.504665731 -0.45 -0.675 0.5847007782 -0.5625 -0.6375 0.5264859922 -0.525 -0.6 0.6036348234 -0.4875 -0.6375 0.5966049782 -0.45 -0.6 0.6614378278 -0.4125 -0.7125 0.567615627 -0.375 -0.675 0.6354132514 -0.3375 -0.7125 0.61517274 -0.3 -0.675 0.6740734381 -0.4125 -0.6375 0.6507207542 -0.375 -0.6 0.7066647013 -0.3375 -0.6375 0.6925947589 -0.3 -0.6 0.7416198487 -0.2625 -0.8625 0.4326517075 -0.225 -0.825 0.5184110338 -0.1875 -0.8625 0.4700398919 -0.15 -0.825 0.5448623679 -0.2625 -0.7875 0.5576177006 -0.225 -0.75 0.6219927652 -0.1875 -0.7875 0.5871009283 -0.15 -0.75 0.6442049363 -0.1125 -0.8625 0.4933938589 -0.075 -0.825 0.5601339126 -0.0375 -0.8625 0.504665731 0 -0.825 0.5651327278 -0.1125 -0.7875 0.6059599822 -0.075 -0.75 0.6571719714 -0.0375 -0.7875 0.61517274 0 -0.75 0.6614378278 -0.2625 -0.7125 0.6507207542 -0.225 -0.675 0.7026734661 -0.1875 -0.7125 0.6761564168 -0.15 -0.675 0.7224091638 -0.2625 -0.6375 0.7243531597 -0.225 -0.6 0.7677076266 -0.1875 -0.6375 0.7472867589 -0.15 -0.6 0.7858116823 -0.1125 -0.7125 0.6925947589 -0.075 -0.675 0.7339959128 -0.0375 -0.7125 0.7006693229 0 -0.675 0.7378177282 -0.1125 -0.6375 0.762192561 -0.075 -0.6 0.7964766161 -0.0375 -0.6375 0.7695371986 0 -0.6 0.8 -0.9 -0.4125 0.1408678459 -0.9075141907 -0.4200141907 0 -0.9 -0.4358894348 0 -0.9109565735 -0.4125 0 -0.91875 -0.39375 0.0293150985 -0.9195671082 -0.3929328918 0 -0.9190750122 -0.3940750122 0 -0.9 -0.375 0.2222048604 -0.9270240784 -0.375 0 -0.9375 -0.3375 0.08477912479 -0.9403106689 -0.3403106689 0 -0.9375 -0.3479850769 0 -0.9413246155 -0.3375 0 -0.91875 -0.35625 0.1702479809 -0.930015564 -0.367515564 0 -0.9 -0.3375 0.2758509561 -0.9375 -0.3 0.1763341997 -0.9434303284 -0.3315696716 0 -0.949937439 -0.312437439 0 -0.9539382935 -0.3 0 -0.91875 -0.31875 0.2330168985 -0.9 -0.3 0.316227766 -0.825 -0.5625 0.05448623679 -0.8260688782 -0.5635688782 0 -0.825 -0.5651321411 0 -0.8267967224 -0.5625 0 -0.825 -0.525 0.2091650066 -0.8305366516 -0.5569633484 0 -0.8410125732 -0.5410125732 0 -0.8511016846 -0.525 0 -0.80625 -0.58125 0.1100426054 -0.8105987549 -0.5855987549 0 -0.7875 -0.5625 0.251868021 -0.76875 -0.58125 0.2667805746 -0.75 -0.5625 0.3479852727 -0.80625 -0.54375 0.2330168985 -0.7875 -0.525 0.3228292893 -0.76875 -0.54375 0.33668884 -0.75 -0.525 0.4023369235 -0.8625 -0.4875 0.1357847561 -0.8692932129 -0.4942932129 0 -0.8625 -0.5060554504 0 -0.873122406 -0.4875 0 -0.84375 -0.50625 0.1783167827 -0.8554252625 -0.5179252625 0 -0.825 -0.4875 0.2858649157 -0.88125 -0.46875 0.06059599822 -0.8856536865 -0.4643463135 0 -0.8826072693 -0.4701072693 0 -0.8625 -0.45 0.2315032397 -0.8930282593 -0.45 0 -0.84375 -0.46875 0.2614562583 -0.825 -0.45 0.3418698583 -0.7875 -0.4875 0.3770775782 -0.75 -0.45 0.4847679857 -0.7125 -0.5625 0.4194490434 -0.675 -0.525 0.5184110338 -0.6375 -0.5625 0.5264859922 -0.6 -0.525 0.6036348234 -0.7125 -0.4875 0.504665731 -0.675 -0.45 0.5847007782 -0.6375 -0.4875 0.5966049782 -0.6 -0.45 0.6614378278 -0.88125 -0.43125 0.1934473443 -0.8953536987 -0.4453536987 0 -0.8625 -0.4125 0.293150985 -0.84375 -0.43125 0.3195455758 -0.825 -0.4125 0.3862884285 -0.88125 -0.39375 0.2614562583 -0.8625 -0.375 0.3398069305 -0.84375 -0.39375 0.3647559115 -0.825 -0.375 0.4227883631 -0.7875 -0.4125 0.4579164771 -0.75 -0.375 0.5448623679 -0.8625 -0.3375 0.3770775782 -0.825 -0.3 0.4789311015 -0.7875 -0.3375 0.5156912836 -0.75 -0.3 0.5894913061 -0.7125 -0.4125 0.567615627 -0.675 -0.375 0.6354132514 -0.6375 -0.4125 0.6507207542 -0.6 -0.375 0.7066647013 -0.7125 -0.3375 0.61517274 -0.675 -0.3 0.6740734381 -0.6375 -0.3375 0.6925947589 -0.6 -0.3 0.7416198487 -0.95625 -0.28125 0.08052561704 -0.9610176086 -0.2764823914 0 -0.9588638306 -0.2838638306 0 -0.9375 -0.2625 0.228445836 -0.964931488 -0.2625 0 -0.91875 -0.28125 0.277122491 -0.9 -0.2625 0.3479852727 -0.95625 -0.24375 0.1617772388 -0.9741645813 -0.2258354187 0 -0.9670555115 -0.2545555115 0 -0.9375 -0.225 0.2654595073 -0.974356842 -0.225 0 -0.91875 -0.24375 0.310619341 -0.9 -0.225 0.3733296131 -0.975 -0.1875 0.1192424002 -0.9810836792 -0.1935836792 0 -0.975 -0.222203064 0 -0.9822624207 -0.1875 0 -0.975 -0.15 0.1639359631 -0.9839263916 -0.1785736084 0 -0.986819458 -0.161819458 0 -0.988684845 -0.15 0 -0.95625 -0.20625 0.2074774084 -0.9744781494 -0.2244781494 0 -0.9375 -0.1875 0.293150985 -0.91875 -0.20625 0.33668884 -0.9 -0.1875 0.393501906 -0.95625 -0.16875 0.2389756787 -0.9375 -0.15 0.3139964172 -0.91875 -0.16875 0.3569620078 -0.9 -0.15 0.4092676386 -0.975 -0.1125 0.1916213715 -0.990978241 -0.134021759 0 -0.9916259766 -0.1291259766 0 -0.9936515808 -0.1125 0 -0.99375 -0.09375 0.06059599822 -0.9957847595 -0.09171524048 0 -0.9954345703 -0.09543457031 0 -0.975 -0.075 0.2091650066 -0.9971832275 -0.075 0 -0.9375 -0.1125 0.3292984968 -0.9 -0.075 0.4293891009 -0.99375 -0.05625 0.09642030388 -0.9986801147 -0.05131988525 0 -0.9981582642 -0.06065826416 0 -0.975 -0.0375 0.2190176933 -0.9992958069 -0.0375 0 -0.99375 -0.01875 0.1100426054 -0.9999206543 -0.0125793457 0 -0.9996940613 -0.02469406128 0 -0.975 0 0.2222048604 -0.9999984741 0 0 -0.9375 -0.0375 0.3459588126 -0.9 0 0.4358898944 -0.8625 -0.2625 0.4326517075 -0.825 -0.225 0.5184110338 -0.7875 -0.2625 0.5576177006 -0.75 -0.225 0.6219927652 -0.8625 -0.1875 0.4700398919 -0.825 -0.15 0.5448623679 -0.7875 -0.1875 0.5871009283 -0.75 -0.15 0.6442049363 -0.7125 -0.2625 0.6507207542 -0.675 -0.225 0.7026734661 -0.6375 -0.2625 0.7243531597 -0.6 -0.225 0.7677076266 -0.7125 -0.1875 0.6761564168 -0.675 -0.15 0.7224091638 -0.6375 -0.1875 0.7472867589 -0.6 -0.15 0.7858116823 -0.8625 -0.1125 0.4933938589 -0.825 -0.075 0.5601339126 -0.7875 -0.1125 0.6059599822 -0.75 -0.075 0.6571719714 -0.8625 -0.0375 0.504665731 -0.825 0 0.5651327278 -0.7875 -0.0375 0.61517274 -0.75 0 0.6614378278 -0.7125 -0.1125 0.6925947589 -0.675 -0.075 0.7339959128 -0.6375 -0.1125 0.762192561 -0.6 -0.075 0.7964766161 -0.7125 -0.0375 0.7006693229 -0.675 0 0.7378177282 -0.6375 -0.0375 0.7695371986 -0.6 0 0.8 -0.5625 -0.5625 0.6059599822 -0.525 -0.525 0.6698880503 -0.4875 -0.5625 0.6677855195 -0.45 -0.525 0.7224091638 -0.5625 -0.4875 0.6677855195 -0.525 -0.45 0.7224091638 -0.4875 -0.4875 0.7243531597 -0.45 -0.45 0.771362431 -0.4125 -0.5625 0.7165455324 -0.375 -0.525 0.7640353395 -0.3375 -0.5625 0.754776457 -0.3 -0.525 0.7964766161 -0.4125 -0.4875 0.7695371986 -0.375 -0.45 0.8104782539 -0.3375 -0.4875 0.8052561704 -0.3 -0.45 0.8411301921 -0.5625 -0.4125 0.7165455324 -0.525 -0.375 0.7640353395 -0.4875 -0.4125 0.7695371986 -0.45 -0.375 0.8104782539 -0.5625 -0.3375 0.754776457 -0.525 -0.3 0.7964766161 -0.4875 -0.3375 0.8052561704 -0.45 -0.3 0.8411301921 -0.4125 -0.4125 0.8122114872 -0.375 -0.375 0.8477912479 -0.3375 -0.4125 0.8461309 -0.3 -0.375 0.8771402396 -0.4125 -0.3375 0.8461309 -0.375 -0.3 0.8771402396 -0.3375 -0.3375 0.8787419985 -0.3 -0.3 0.9055385138 -0.2625 -0.5625 0.784020089 -0.225 -0.525 0.820822758 -0.1875 -0.5625 0.8052561704 -0.15 -0.525 0.837779804 -0.2625 -0.4875 0.8327289475 -0.225 -0.45 0.8642193009 -0.1875 -0.4875 0.852752895 -0.15 -0.45 0.8803408431 -0.1125 -0.5625 0.8191077463 -0.075 -0.525 0.8477912479 -0.0375 -0.5625 0.8259464268 0 -0.525 0.8511022265 -0.1125 -0.4875 0.865844963 -0.075 -0.45 0.8898735865 -0.0375 -0.4875 0.8723173161 0 -0.45 0.893028555 -0.2625 -0.4125 0.8723173161 -0.225 -0.375 0.8993052874 -0.1875 -0.4125 0.8914524665 -0.15 -0.375 0.9148087232 -0.2625 -0.3375 0.9039842366 -0.225 -0.3 0.9270248109 -0.1875 -0.3375 0.9224627364 -0.15 -0.3 0.9420721841 -0.1125 -0.4125 0.9039842366 -0.075 -0.375 0.9239859306 -0.0375 -0.4125 0.9101854207 0 -0.375 0.9270248109 -0.1125 -0.3375 0.9345787821 -0.075 -0.3 0.9509863301 -0.0375 -0.3375 0.9405782796 0 -0.3 0.9539392014 -0.5625 -0.2625 0.784020089 -0.525 -0.225 0.820822758 -0.4875 -0.2625 0.8327289475 -0.45 -0.225 0.8642193009 -0.5625 -0.1875 0.8052561704 -0.525 -0.15 0.837779804 -0.4875 -0.1875 0.852752895 -0.45 -0.15 0.8803408431 -0.4125 -0.2625 0.8723173161 -0.375 -0.225 0.8993052874 -0.3375 -0.2625 0.9039842366 -0.3 -0.225 0.9270248109 -0.4125 -0.1875 0.8914524665 -0.375 -0.15 0.9148087232 -0.3375 -0.1875 0.9224627364 -0.3 -0.15 0.9420721841 -0.5625 -0.1125 0.8191077463 -0.525 -0.075 0.8477912479 -0.4875 -0.1125 0.865844963 -0.45 -0.075 0.8898735865 -0.5625 -0.0375 0.8259464268 -0.525 0 0.8511022265 -0.4875 -0.0375 0.8723173161 -0.45 0 0.893028555 -0.4125 -0.1125 0.9039842366 -0.375 -0.075 0.9239859306 -0.3375 -0.1125 0.9345787821 -0.3 -0.075 0.9509863301 -0.4125 -0.0375 0.9101854207 -0.375 0 0.9270248109 -0.3375 -0.0375 0.9405782796 -0.3 0 0.9539392014 -0.2625 -0.2625 0.9285405215 -0.225 -0.225 0.9480242613 -0.1875 -0.2625 0.9465397509 -0.15 -0.225 0.9627434757 -0.2625 -0.1875 0.9465397509 -0.225 -0.15 0.9627434757 -0.1875 -0.1875 0.9642030388 -0.15 -0.15 0.9772410143 -0.1125 -0.2625 0.9583514491 -0.075 -0.225 0.9714679614 -0.0375 -0.2625 0.9642030388 0 -0.225 0.9743587635 -0.1125 -0.1875 0.9758009531 -0.075 -0.15 0.9858372077 -0.0375 -0.1875 0.9815485215 0 -0.15 0.9886859967 -0.2625 -0.1125 0.9583514491 -0.225 -0.075 0.9714679614 -0.1875 -0.1125 0.9758009531 -0.15 -0.075 0.9858372077 -0.2625 -0.0375 0.9642030388 -0.225 0 0.9743587635 -0.1875 -0.0375 0.9815485215 -0.15 0 0.9886859967 -0.1125 -0.1125 0.9872626297 -0.075 -0.075 0.9943590901 -0.0375 -0.1125 0.9929438554 0 -0.075 0.9971835338 -0.1125 -0.0375 0.9929438554 -0.075 0 0.9971835338 -0.0375 -0.0375 0.9985927598 0 0 1 0.01875 -0.99375 0.1100426054 0.0125793457 -0.9999206543 0 0.0375 -0.975 0.2190176933 0.0375 -0.9992958069 0 0.02469406128 -0.9996940613 0 0.05625 -0.99375 0.09642030388 0.05131988525 -0.9986801147 0 0.075 -0.975 0.2091650066 0.075 -0.9971832275 0 0.06065826416 -0.9981582642 0 0.09375 -0.99375 0.06059599822 0.09171524048 -0.9957847595 0 0.1125 -0.975 0.1916213715 0.1125 -0.9936515808 0 0.09543457031 -0.9954345703 0 0.1291259766 -0.9916259766 0 0.15 -0.975 0.1639359631 0.134021759 -0.990978241 0 0.15 -0.988684845 0 0.0375 -0.9375 0.3459588126 0.075 -0.9 0.4293891009 0.1125 -0.9375 0.3292984968 0.15 -0.9375 0.3139964172 0.15 -0.9 0.4092676386 0.161819458 -0.986819458 0 0.1875 -0.975 0.1192424002 0.1785736084 -0.9839263916 0 0.1875 -0.9822624207 0 0.1935836792 -0.9810836792 0 0.222203064 -0.975 0 0.16875 -0.95625 0.2389756787 0.1875 -0.9375 0.293150985 0.20625 -0.95625 0.2074774084 0.225 -0.9375 0.2654595073 0.225 -0.974356842 0 0.2244781494 -0.9744781494 0 0.16875 -0.91875 0.3569620078 0.1875 -0.9 0.393501906 0.20625 -0.91875 0.33668884 0.225 -0.9 0.3733296131 0.24375 -0.95625 0.1617772388 0.2258354187 -0.9741645813 0 0.2625 -0.9375 0.228445836 0.2625 -0.964931488 0 0.2545555115 -0.9670555115 0 0.28125 -0.95625 0.08052561704 0.2764823914 -0.9610176086 0 0.3 -0.9375 0.1763341997 0.3 -0.9539382935 0 0.2838638306 -0.9588638306 0 0.24375 -0.91875 0.310619341 0.2625 -0.9 0.3479852727 0.28125 -0.91875 0.277122491 0.3 -0.9 0.316227766 0.312437439 -0.949937439 0 0.3375 -0.9375 0.08477912479 0.3315696716 -0.9434303284 0 0.3375 -0.9413246155 0 0.3403106689 -0.9403106689 0 0.3479850769 -0.9375 0 0.31875 -0.91875 0.2330168985 0.3375 -0.9 0.2758509561 0.35625 -0.91875 0.1702479809 0.375 -0.9 0.2222048604 0.375 -0.9270240784 0 0.367515564 -0.930015564 0 0.39375 -0.91875 0.0293150985 0.3929328918 -0.9195671082 0 0.4125 -0.9 0.1408678459 0.4125 -0.9109565735 0 0.3940750122 -0.9190750122 0 0.4200141907 -0.9075141907 0 0.4358894348 -0.9 0 0.0375 -0.8625 0.504665731 0.075 -0.825 0.5601339126 0.1125 -0.8625 0.4933938589 0.15 -0.825 0.5448623679 0.0375 -0.7875 0.61517274 0.075 -0.75 0.6571719714 0.1125 -0.7875 0.6059599822 0.15 -0.75 0.6442049363 0.1875 -0.8625 0.4700398919 0.225 -0.825 0.5184110338 0.2625 -0.8625 0.4326517075 0.3 -0.825 0.4789311015 0.1875 -0.7875 0.5871009283 0.225 -0.75 0.6219927652 0.2625 -0.7875 0.5576177006 0.3 -0.75 0.5894913061 0.0375 -0.7125 0.7006693229 0.075 -0.675 0.7339959128 0.1125 -0.7125 0.6925947589 0.15 -0.675 0.7224091638 0.0375 -0.6375 0.7695371986 0.075 -0.6 0.7964766161 0.1125 -0.6375 0.762192561 0.15 -0.6 0.7858116823 0.1875 -0.7125 0.6761564168 0.225 -0.675 0.7026734661 0.2625 -0.7125 0.6507207542 0.3 -0.675 0.6740734381 0.1875 -0.6375 0.7472867589 0.225 -0.6 0.7677076266 0.2625 -0.6375 0.7243531597 0.3 -0.6 0.7416198487 0.3375 -0.8625 0.3770775782 0.375 -0.8625 0.3398069305 0.375 -0.825 0.4227883631 0.39375 -0.88125 0.2614562583 0.4125 -0.8625 0.293150985 0.43125 -0.88125 0.1934473443 0.45 -0.8625 0.2315032397 0.45 -0.8930282593 0 0.4453536987 -0.8953536987 0 0.39375 -0.84375 0.3647559115 0.4125 -0.825 0.3862884285 0.43125 -0.84375 0.3195455758 0.45 -0.825 0.3418698583 0.3375 -0.7875 0.5156912836 0.375 -0.75 0.5448623679 0.4125 -0.7875 0.4579164771 0.45 -0.75 0.4847679857 0.46875 -0.88125 0.06059599822 0.4643463135 -0.8856536865 0 0.4875 -0.8625 0.1357847561 0.4875 -0.873122406 0 0.4701072693 -0.8826072693 0 0.4942932129 -0.8692932129 0 0.5060554504 -0.8625 0 0.46875 -0.84375 0.2614562583 0.4875 -0.825 0.2858649157 0.50625 -0.84375 0.1783167827 0.525 -0.825 0.2091650066 0.525 -0.8511016846 0 0.5179252625 -0.8554252625 0 0.5410125732 -0.8410125732 0 0.5625 -0.825 0.05448623679 0.5569633484 -0.8305366516 0 0.5625 -0.8267967224 0 0.5635688782 -0.8260688782 0 0.5651321411 -0.825 0 0.4875 -0.7875 0.3770775782 0.525 -0.7875 0.3228292893 0.525 -0.75 0.4023369235 0.54375 -0.80625 0.2330168985 0.5625 -0.7875 0.251868021 0.58125 -0.80625 0.1100426054 0.6 -0.7875 0.1408678459 0.6 -0.7999992371 0 0.5855987549 -0.8105987549 0 0.54375 -0.76875 0.33668884 0.5625 -0.75 0.3479852727 0.58125 -0.76875 0.2667805746 0.6 -0.75 0.2783882181 0.3375 -0.7125 0.61517274 0.375 -0.675 0.6354132514 0.4125 -0.7125 0.567615627 0.45 -0.675 0.5847007782 0.3375 -0.6375 0.6925947589 0.375 -0.6 0.7066647013 0.4125 -0.6375 0.6507207542 0.45 -0.6 0.6614378278 0.4875 -0.7125 0.504665731 0.525 -0.675 0.5184110338 0.5625 -0.7125 0.4194490434 0.6 -0.7125 0.3637908053 0.6 -0.675 0.4293891009 0.4875 -0.6375 0.5966049782 0.525 -0.6 0.6036348234 0.5625 -0.6375 0.5264859922 0.6 -0.6 0.5291502622 0.6071136475 -0.7946136475 0 0.6163124084 -0.7875 0 0.61875 -0.76875 0.1617772388 0.6375 -0.75 0.1763341997 0.6375 -0.7704483032 0 0.6281158447 -0.7781158447 0 0.648614502 -0.761114502 0 0.6614364624 -0.75 0 0.61875 -0.73125 0.2870921019 0.6375 -0.7125 0.293150985 0.65625 -0.73125 0.1860359508 0.675 -0.7125 0.1916213715 0.675 -0.7378166199 0 0.6686096191 -0.7436096191 0 0.61875 -0.69375 0.3685910674 0.6375 -0.675 0.371441449 0.65625 -0.69375 0.2967269368 0.675 -0.675 0.2979093822 0.6881080627 -0.7256080627 0 0.7016716003 -0.7125 0 0.69375 -0.69375 0.1934473443 0.7125 -0.675 0.1916213715 0.7125 -0.7016716003 0 0.7071052551 -0.7071052551 0 0.7256080627 -0.6881080627 0 0.7378166199 -0.675 0 0.6375 -0.6375 0.4326517075 0.675 -0.6375 0.371441449 0.675 -0.6 0.4293891009 0.69375 -0.65625 0.2967269368 0.7125 -0.6375 0.293150985 0.73125 -0.65625 0.1860359508 0.75 -0.6375 0.1763341997 0.75 -0.6614364624 0 0.7436096191 -0.6686096191 0 0.69375 -0.61875 0.3685910674 0.7125 -0.6 0.3637908053 0.73125 -0.61875 0.2870921019 0.75 -0.6 0.2783882181 0.761114502 -0.648614502 0 0.7704483032 -0.6375 0 0.76875 -0.61875 0.1617772388 0.7875 -0.6 0.1408678459 0.7875 -0.6163124084 0 0.7781158447 -0.6281158447 0 0.7946136475 -0.6071136475 0 0.7999992371 -0.6 0 0.0375 -0.5625 0.8259464268 0.075 -0.525 0.8477912479 0.1125 -0.5625 0.8191077463 0.15 -0.525 0.837779804 0.0375 -0.4875 0.8723173161 0.075 -0.45 0.8898735865 0.1125 -0.4875 0.865844963 0.15 -0.45 0.8803408431 0.1875 -0.5625 0.8052561704 0.225 -0.525 0.820822758 0.2625 -0.5625 0.784020089 0.3 -0.525 0.7964766161 0.1875 -0.4875 0.852752895 0.225 -0.45 0.8642193009 0.2625 -0.4875 0.8327289475 0.3 -0.45 0.8411301921 0.0375 -0.4125 0.9101854207 0.075 -0.375 0.9239859306 0.1125 -0.4125 0.9039842366 0.15 -0.375 0.9148087232 0.0375 -0.3375 0.9405782796 0.075 -0.3 0.9509863301 0.1125 -0.3375 0.9345787821 0.15 -0.3 0.9420721841 0.1875 -0.4125 0.8914524665 0.225 -0.375 0.8993052874 0.2625 -0.4125 0.8723173161 0.3 -0.375 0.8771402396 0.1875 -0.3375 0.9224627364 0.225 -0.3 0.9270248109 0.2625 -0.3375 0.9039842366 0.3 -0.3 0.9055385138 0.3375 -0.5625 0.754776457 0.375 -0.525 0.7640353395 0.4125 -0.5625 0.7165455324 0.45 -0.525 0.7224091638 0.3375 -0.4875 0.8052561704 0.375 -0.45 0.8104782539 0.4125 -0.4875 0.7695371986 0.45 -0.45 0.771362431 0.4875 -0.5625 0.6677855195 0.525 -0.525 0.6698880503 0.5625 -0.5625 0.6059599822 0.6 -0.525 0.6036348234 0.4875 -0.4875 0.7243531597 0.525 -0.45 0.7224091638 0.5625 -0.4875 0.6677855195 0.6 -0.45 0.6614378278 0.3375 -0.4125 0.8461309 0.375 -0.375 0.8477912479 0.4125 -0.4125 0.8122114872 0.45 -0.375 0.8104782539 0.3375 -0.3375 0.8787419985 0.375 -0.3 0.8771402396 0.4125 -0.3375 0.8461309 0.45 -0.3 0.8411301921 0.4875 -0.4125 0.7695371986 0.525 -0.375 0.7640353395 0.5625 -0.4125 0.7165455324 0.6 -0.375 0.7066647013 0.4875 -0.3375 0.8052561704 0.525 -0.3 0.7964766161 0.5625 -0.3375 0.754776457 0.6 -0.3 0.7416198487 0.0375 -0.2625 0.9642030388 0.075 -0.225 0.9714679614 0.1125 -0.2625 0.9583514491 0.15 -0.225 0.9627434757 0.0375 -0.1875 0.9815485215 0.075 -0.15 0.9858372077 0.1125 -0.1875 0.9758009531 0.15 -0.15 0.9772410143 0.1875 -0.2625 0.9465397509 0.225 -0.225 0.9480242613 0.2625 -0.2625 0.9285405215 0.3 -0.225 0.9270248109 0.1875 -0.1875 0.9642030388 0.225 -0.15 0.9627434757 0.2625 -0.1875 0.9465397509 0.3 -0.15 0.9420721841 0.0375 -0.1125 0.9929438554 0.075 -0.075 0.9943590901 0.1125 -0.1125 0.9872626297 0.15 -0.075 0.9858372077 0.0375 -0.0375 0.9985927598 0.075 0 0.9971835338 0.1125 -0.0375 0.9929438554 0.15 0 0.9886859967 0.1875 -0.1125 0.9758009531 0.225 -0.075 0.9714679614 0.2625 -0.1125 0.9583514491 0.3 -0.075 0.9509863301 0.1875 -0.0375 0.9815485215 0.225 0 0.9743587635 0.2625 -0.0375 0.9642030388 0.3 0 0.9539392014 0.3375 -0.2625 0.9039842366 0.375 -0.225 0.8993052874 0.4125 -0.2625 0.8723173161 0.45 -0.225 0.8642193009 0.3375 -0.1875 0.9224627364 0.375 -0.15 0.9148087232 0.4125 -0.1875 0.8914524665 0.45 -0.15 0.8803408431 0.4875 -0.2625 0.8327289475 0.525 -0.225 0.820822758 0.5625 -0.2625 0.784020089 0.6 -0.225 0.7677076266 0.4875 -0.1875 0.852752895 0.525 -0.15 0.837779804 0.5625 -0.1875 0.8052561704 0.6 -0.15 0.7858116823 0.3375 -0.1125 0.9345787821 0.375 -0.075 0.9239859306 0.4125 -0.1125 0.9039842366 0.45 -0.075 0.8898735865 0.3375 -0.0375 0.9405782796 0.375 0 0.9270248109 0.4125 -0.0375 0.9101854207 0.45 0 0.893028555 0.4875 -0.1125 0.865844963 0.525 -0.075 0.8477912479 0.5625 -0.1125 0.8191077463 0.6 -0.075 0.7964766161 0.4875 -0.0375 0.8723173161 0.525 0 0.8511022265 0.5625 -0.0375 0.8259464268 0.6 0 0.8 0.6375 -0.5625 0.5264859922 0.675 -0.525 0.5184110338 0.7125 -0.5625 0.4194490434 0.75 -0.5625 0.3479852727 0.75 -0.525 0.4023369235 0.6375 -0.4875 0.5966049782 0.675 -0.45 0.5847007782 0.7125 -0.4875 0.504665731 0.75 -0.45 0.4847679857 0.76875 -0.58125 0.2667805746 0.7875 -0.5625 0.251868021 0.80625 -0.58125 0.1100426054 0.825 -0.5625 0.05448623679 0.825 -0.5651321411 0 0.8105987549 -0.5855987549 0 0.76875 -0.54375 0.33668884 0.7875 -0.525 0.3228292893 0.80625 -0.54375 0.2330168985 0.825 -0.525 0.2091650066 0.8260688782 -0.5635688782 0 0.8267967224 -0.5625 0 0.8410125732 -0.5410125732 0 0.8305366516 -0.5569633484 0 0.8511016846 -0.525 0 0.7875 -0.4875 0.3770775782 0.825 -0.4875 0.2858649157 0.825 -0.45 0.3418698583 0.84375 -0.50625 0.1783167827 0.8625 -0.4875 0.1357847561 0.8625 -0.5060554504 0 0.8554252625 -0.5179252625 0 0.8692932129 -0.4942932129 0 0.873122406 -0.4875 0 0.84375 -0.46875 0.2614562583 0.8625 -0.45 0.2315032397 0.88125 -0.46875 0.06059599822 0.8826072693 -0.4701072693 0 0.8856536865 -0.4643463135 0 0.8930282593 -0.45 0 0.6375 -0.4125 0.6507207542 0.675 -0.375 0.6354132514 0.7125 -0.4125 0.567615627 0.75 -0.375 0.5448623679 0.6375 -0.3375 0.6925947589 0.675 -0.3 0.6740734381 0.7125 -0.3375 0.61517274 0.75 -0.3 0.5894913061 0.7875 -0.4125 0.4579164771 0.825 -0.4125 0.3862884285 0.825 -0.375 0.4227883631 0.84375 -0.43125 0.3195455758 0.8625 -0.4125 0.293150985 0.88125 -0.43125 0.1934473443 0.9 -0.4125 0.1408678459 0.9 -0.4358894348 0 0.8953536987 -0.4453536987 0 0.84375 -0.39375 0.3647559115 0.8625 -0.375 0.3398069305 0.88125 -0.39375 0.2614562583 0.9 -0.375 0.2222048604 0.7875 -0.3375 0.5156912836 0.825 -0.3 0.4789311015 0.8625 -0.3375 0.3770775782 0.9 -0.3375 0.2758509561 0.9 -0.3 0.316227766 0.9075141907 -0.4200141907 0 0.9109565735 -0.4125 0 0.91875 -0.39375 0.0293150985 0.9190750122 -0.3940750122 0 0.9195671082 -0.3929328918 0 0.9270240784 -0.375 0 0.91875 -0.35625 0.1702479809 0.9375 -0.3375 0.08477912479 0.9375 -0.3479850769 0 0.930015564 -0.367515564 0 0.9403106689 -0.3403106689 0 0.9413246155 -0.3375 0 0.91875 -0.31875 0.2330168985 0.9375 -0.3 0.1763341997 0.949937439 -0.312437439 0 0.9434303284 -0.3315696716 0 0.9539382935 -0.3 0 0.6375 -0.2625 0.7243531597 0.675 -0.225 0.7026734661 0.7125 -0.2625 0.6507207542 0.75 -0.225 0.6219927652 0.6375 -0.1875 0.7472867589 0.675 -0.15 0.7224091638 0.7125 -0.1875 0.6761564168 0.75 -0.15 0.6442049363 0.7875 -0.2625 0.5576177006 0.825 -0.225 0.5184110338 0.8625 -0.2625 0.4326517075 0.9 -0.2625 0.3479852727 0.9 -0.225 0.3733296131 0.7875 -0.1875 0.5871009283 0.825 -0.15 0.5448623679 0.8625 -0.1875 0.4700398919 0.9 -0.1875 0.393501906 0.9 -0.15 0.4092676386 0.6375 -0.1125 0.762192561 0.675 -0.075 0.7339959128 0.7125 -0.1125 0.6925947589 0.75 -0.075 0.6571719714 0.6375 -0.0375 0.7695371986 0.675 0 0.7378177282 0.7125 -0.0375 0.7006693229 0.75 0 0.6614378278 0.7875 -0.1125 0.6059599822 0.825 -0.075 0.5601339126 0.8625 -0.1125 0.4933938589 0.9 -0.075 0.4293891009 0.7875 -0.0375 0.61517274 0.825 0 0.5651327278 0.8625 -0.0375 0.504665731 0.9 0 0.4358898944 0.91875 -0.28125 0.277122491 0.9375 -0.2625 0.228445836 0.95625 -0.28125 0.08052561704 0.9588638306 -0.2838638306 0 0.9610176086 -0.2764823914 0 0.964931488 -0.2625 0 0.91875 -0.24375 0.310619341 0.9375 -0.225 0.2654595073 0.95625 -0.24375 0.1617772388 0.9670555115 -0.2545555115 0 0.9741645813 -0.2258354187 0 0.974356842 -0.225 0 0.91875 -0.20625 0.33668884 0.9375 -0.1875 0.293150985 0.95625 -0.20625 0.2074774084 0.975 -0.1875 0.1192424002 0.975 -0.222203064 0 0.9744781494 -0.2244781494 0 0.91875 -0.16875 0.3569620078 0.9375 -0.15 0.3139964172 0.95625 -0.16875 0.2389756787 0.975 -0.15 0.1639359631 0.9810836792 -0.1935836792 0 0.9822624207 -0.1875 0 0.986819458 -0.161819458 0 0.9839263916 -0.1785736084 0 0.988684845 -0.15 0 0.9375 -0.1125 0.3292984968 0.975 -0.1125 0.1916213715 0.975 -0.075 0.2091650066 0.9916259766 -0.1291259766 0 0.990978241 -0.134021759 0 0.9936515808 -0.1125 0 0.99375 -0.09375 0.06059599822 0.9954345703 -0.09543457031 0 0.9957847595 -0.09171524048 0 0.9971832275 -0.075 0 0.9375 -0.0375 0.3459588126 0.975 -0.0375 0.2190176933 0.975 0 0.2222048604 0.99375 -0.05625 0.09642030388 0.9981582642 -0.06065826416 0 0.9986801147 -0.05131988525 0 0.9992958069 -0.0375 0 0.99375 -0.01875 0.1100426054 0.9996940613 -0.02469406128 0 0.9999206543 -0.0125793457 0 0.9999984741 0 0 -0.99375 0.01875 0.1100426054 -0.9996940613 0.02469406128 0 -0.9999206543 0.0125793457 0 -0.975 0.0375 0.2190176933 -0.9992958069 0.0375 0 -0.99375 0.05625 0.09642030388 -0.9981582642 0.06065826416 0 -0.9986801147 0.05131988525 0 -0.975 0.075 0.2091650066 -0.9971832275 0.075 0 -0.9375 0.0375 0.3459588126 -0.9 0.075 0.4293891009 -0.99375 0.09375 0.06059599822 -0.9954345703 0.09543457031 0 -0.9957847595 0.09171524048 0 -0.975 0.1125 0.1916213715 -0.9936515808 0.1125 0 -0.975 0.15 0.1639359631 -0.9916259766 0.1291259766 0 -0.990978241 0.134021759 0 -0.988684845 0.15 0 -0.9375 0.1125 0.3292984968 -0.9 0.15 0.4092676386 -0.9375 0.15 0.3139964172 -0.975 0.1875 0.1192424002 -0.986819458 0.161819458 0 -0.9839263916 0.1785736084 0 -0.9822624207 0.1875 0 -0.975 0.222203064 0 -0.9810836792 0.1935836792 0 -0.95625 0.16875 0.2389756787 -0.9375 0.1875 0.293150985 -0.91875 0.16875 0.3569620078 -0.9 0.1875 0.393501906 -0.95625 0.20625 0.2074774084 -0.9744781494 0.2244781494 0 -0.9375 0.225 0.2654595073 -0.974356842 0.225 0 -0.91875 0.20625 0.33668884 -0.9 0.225 0.3733296131 -0.95625 0.24375 0.1617772388 -0.9670555115 0.2545555115 0 -0.9741645813 0.2258354187 0 -0.9375 0.2625 0.228445836 -0.964931488 0.2625 0 -0.91875 0.24375 0.310619341 -0.9 0.2625 0.3479852727 -0.95625 0.28125 0.08052561704 -0.9588638306 0.2838638306 0 -0.9610176086 0.2764823914 0 -0.9375 0.3 0.1763341997 -0.9539382935 0.3 0 -0.91875 0.28125 0.277122491 -0.9 0.3 0.316227766 -0.8625 0.0375 0.504665731 -0.825 0.075 0.5601339126 -0.7875 0.0375 0.61517274 -0.75 0.075 0.6571719714 -0.8625 0.1125 0.4933938589 -0.825 0.15 0.5448623679 -0.7875 0.1125 0.6059599822 -0.75 0.15 0.6442049363 -0.7125 0.0375 0.7006693229 -0.675 0.075 0.7339959128 -0.6375 0.0375 0.7695371986 -0.6 0.075 0.7964766161 -0.7125 0.1125 0.6925947589 -0.675 0.15 0.7224091638 -0.6375 0.1125 0.762192561 -0.6 0.15 0.7858116823 -0.8625 0.1875 0.4700398919 -0.825 0.22