<VTKFile type='UnstructuredGrid' version='0.1' byte_order='LittleEndian'>
<!-- surface_plot_annular_edge -->
  <UnstructuredGrid>
    <Piece NumberOfPoints='6297' NumberOfCells='10320'>
      <PointData Scalars='f(x,y) x y' Normals='NORMALS'>
        <DataArray Name='NORMALS' type='Float64' format='ascii' NumberOfComponents='3'>
          -1.1 -1.03125 0.9891835967 -1.1 -1.1 1.020606451 -1.065625 -1.065625 0.9886539321 -1.03125 -1.1 0.9891835967 -1.03125 -1.03125 0.954767241 -0.996875 -1.065625 0.9553496727 -0.9625 -1.1 0.9570912021 -0.9625 -1.03125 0.9191999491 -1.1 -0.9625 0.9570912021 -1.065625 -0.996875 0.9553496727 -1.03125 -0.9625 0.9191999491 -0.996875 -0.996875 0.9185533043 -0.9625 -0.9625 0.8794762523 -0.928125 -1.065625 0.9211325533 -0.89375 -1.1 0.9243294421 -0.89375 -1.03125 0.8823732709 -0.859375 -1.065625 0.8859591091 -0.825 -1.1 0.8909148693 -0.825 -1.03125 0.8441642122 -0.928125 -0.996875 0.8802029011 -0.89375 -0.9625 0.8376061139 -0.859375 -0.996875 0.8400813152 -0.825 -0.9625 0.7931721768 -1.1 -0.89375 0.9243294421 -1.065625 -0.928125 0.9211325533 -1.03125 -0.89375 0.8823732709 -0.996875 -0.928125 0.8802029011 -0.9625 -0.89375 0.8376061139 -1.1 -0.825 0.8909148693 -1.065625 -0.859375 0.8859591091 -1.03125 -0.825 0.8441642122 -0.996875 -0.859375 0.8400813152 -0.9625 -0.825 0.7931721768 -0.928125 -0.928125 0.8367767265 -0.89375 -0.89375 0.7893236186 -0.859375 -0.928125 0.7902903556 -0.825 -0.89375 0.7364762929 -0.928125 -0.859375 0.7902903556 -0.89375 -0.825 0.7364762929 -0.859375 -0.859375 0.7353153258 -0.825 -0.825 0.6715956849 -0.790625 -1.065625 0.8497937246 -0.75625 -1.1 0.8568891685 -0.75625 -1.03125 0.8044339219 -0.721875 -1.065625 0.8126165773 -0.6875 -1.1 0.822332137 -0.6875 -1.03125 0.7630274616 -0.790625 -0.996875 0.7979152261 -0.75625 -0.9625 0.7455991306 -0.721875 -0.996875 0.7533523359 -0.6875 -0.9625 0.6940561493 -0.653125 -1.065625 0.7744369331 -0.61875 -1.1 0.7873808141 -0.61875 -1.03125 0.7197763078 -0.584375 -1.065625 0.7353153258 -0.55 -1.1 0.7522573052 -0.55 -1.03125 0.6745072036 -0.653125 -0.996875 0.7059250576 -0.61875 -0.9625 0.6372672382 -0.584375 -0.996875 0.6549894237 -0.55 -0.9625 0.5730981419 -0.790625 -0.928125 0.739931294 -0.75625 -0.89375 0.6773875876 -0.721875 -0.928125 0.6844571818 -0.6875 -0.89375 0.6091010907 -0.790625 -0.859375 0.673055384 -0.75625 -0.825 0.5937445985 -0.721875 -0.859375 0.5996148214 -0.6875 -0.825 0.4914381895 -0.721875 -0.825 0.5469387325 -0.653125 -0.928125 0.6218081667 -0.61875 -0.89375 0.5255408434 -0.584375 -0.928125 0.5481382113 -0.55 -0.928125 0.5048419842 -0.55 -0.89375 0.4101943764 -0.584375 -0.89375 0.4738607323 -0.653125 -0.859375 0.5062826375 -0.61875 -0.859375 0.4454121162 -0.61875 -0.825 0.3192891395 -0.653125 -0.825 0.4212005878 -0.6015625 -0.8765625 0.4592240912 -0.584375 -0.859375 0.3645233011 -0.5671875 -0.8765625 0.3874348663 -0.55 -0.859375 0.229231881 -0.5671875 -0.859375 0.3088883328 -0.6015625 -0.8421875 0.3416915555 -0.584375 -0.8421875 0.2744643932 -0.5845101297 -0.8251351297 0.0004965184556 -0.584375 -0.8252308547 0.0005895076084 -0.6015625 -0.825 0.236983549 -0.584700793 -0.825 0.0002406063597 -0.57578125 -0.85078125 0.2920132224 -0.5671875 -0.8421875 0.161293115 -0.55859375 -0.85078125 0.1983835879 -0.5538395584 -0.8460270584 0.0003646457015 -0.55 -0.8485281706 0.0004331180156 -0.5596608222 -0.8421875 0.0002646338324 -0.57578125 -0.83359375 0.1117529936 -0.5835861862 -0.8257888138 7.604657737e-05 -0.5743954003 -0.8322079003 0.0004660733659 -0.5671875 -0.8371370196 0.0004074241527 -0.5641721606 -0.8391721606 0.0006879761926 -1.1 -0.75625 0.8568891685 -1.065625 -0.790625 0.8497937246 -1.03125 -0.75625 0.8044339219 -0.996875 -0.790625 0.7979152261 -0.9625 -0.75625 0.7455991306 -1.1 -0.6875 0.822332137 -1.065625 -0.721875 0.8126165773 -1.03125 -0.6875 0.7630274616 -0.996875 -0.721875 0.7533523359 -0.9625 -0.6875 0.6940561493 -0.928125 -0.790625 0.739931294 -0.89375 -0.75625 0.6773875876 -0.859375 -0.790625 0.673055384 -0.825 -0.75625 0.5937445985 -0.928125 -0.721875 0.6844571818 -0.89375 -0.6875 0.6091010907 -0.859375 -0.721875 0.5996148214 -0.825 -0.721875 0.5469387325 -0.825 -0.6875 0.4914381895 -1.1 -0.61875 0.7873808141 -1.065625 -0.653125 0.7744369331 -1.03125 -0.61875 0.7197763078 -0.996875 -0.653125 0.7059250576 -0.9625 -0.61875 0.6372672382 -1.1 -0.55 0.7522573052 -1.065625 -0.584375 0.7353153258 -1.03125 -0.55 0.6745072036 -0.996875 -0.584375 0.6549894237 -0.9625 -0.55 0.5730981419 -0.928125 -0.653125 0.6218081667 -0.89375 -0.61875 0.5255408434 -0.859375 -0.653125 0.5062826375 -0.825 -0.653125 0.4212005878 -0.825 -0.61875 0.3192891395 -0.859375 -0.61875 0.4454121162 -0.928125 -0.584375 0.5481382113 -0.89375 -0.584375 0.4738607323 -0.89375 -0.55 0.4101943764 -0.928125 -0.55 0.5048419842 -0.8765625 -0.6015625 0.4592240912 -0.859375 -0.584375 0.3645233011 -0.8421875 -0.6015625 0.3416915555 -0.825 -0.6015625 0.236983549 -0.8251351297 -0.5845101297 0.0004965184556 -0.825 -0.584700793 0.0002406063597 -0.8421875 -0.584375 0.2744643932 -0.8252308547 -0.584375 0.0005895076086 -0.8765625 -0.5671875 0.3874348663 -0.859375 -0.5671875 0.3088883328 -0.859375 -0.55 0.229231881 -0.85078125 -0.57578125 0.2920132224 -0.8421875 -0.5671875 0.161293115 -0.83359375 -0.57578125 0.1117529936 -0.8257888138 -0.5835861862 7.604657737e-05 -0.8322079003 -0.5743954003 0.0004660733659 -0.8371370196 -0.5671875 0.0004074241525 -0.85078125 -0.55859375 0.1983835879 -0.8460270584 -0.5538395584 0.0003646457015 -0.8421875 -0.5596608222 0.0002646338324 -0.8485281706 -0.55 0.0004331180158 -0.8391721606 -0.5641721606 0.0006879761926 -0.790625 -0.790625 0.5917564958 -0.75625 -0.790625 0.5420784267 -0.75625 -0.75625 0.4787972289 -0.790625 -0.75625 0.5420784267 -0.7390625 -0.8078125 0.5439129003 -0.721875 -0.790625 0.4820268125 -0.7046875 -0.8078125 0.4859975457 -0.6875 -0.790625 0.4032872343 -0.7390625 -0.7734375 0.4796091401 -0.721875 -0.75625 0.393684941 -0.7046875 -0.7734375 0.3973410501 -0.6875 -0.7734375 0.3408794929 -0.6875 -0.75625 0.2472181667 -0.7046875 -0.75625 0.3342487818 -0.8078125 -0.7390625 0.5439129003 -0.790625 -0.721875 0.4820268125 -0.7734375 -0.7390625 0.4796091401 -0.75625 -0.721875 0.393684941 -0.8078125 -0.7046875 0.4859975457 -0.790625 -0.6875 0.4032872343 -0.7734375 -0.7046875 0.3973410501 -0.75625 -0.7046875 0.3342487818 -0.75625 -0.6875 0.2472181667 -0.7734375 -0.6875 0.3408794929 -0.7390625 -0.7390625 0.3924508801 -0.721875 -0.7390625 0.3308398331 -0.721875 -0.721875 0.2354644324 -0.7390625 -0.721875 0.3308398331 -0.71328125 -0.74765625 0.3321257732 -0.7046875 -0.7390625 0.2384877694 -0.69609375 -0.74765625 0.2421853113 -0.6887713075 -0.7403338075 0.0004489706278 -0.6875 -0.741514504 0.0001786698633 -0.6901352584 -0.7390625 0.0004236469542 -0.71328125 -0.73046875 0.236225874 -0.7063721299 -0.7235596299 0.0006428305867 -0.7046875 -0.7252003968 0.000542034811 -0.7080936074 -0.721875 0.0004916030531 -0.697623384 -0.731998384 0.0002587082646 -0.74765625 -0.71328125 0.3321257732 -0.7390625 -0.7046875 0.2384877694 -0.73046875 -0.71328125 0.236225874 -0.7235596299 -0.7063721299 0.0006428305869 -0.721875 -0.7080936074 0.0004916030531 -0.7252003968 -0.7046875 0.000542034811 -0.74765625 -0.69609375 0.2421853113 -0.7403338075 -0.6887713075 0.0004489706278 -0.7390625 -0.6901352584 0.000423646954 -0.741514504 -0.6875 0.0001786698633 -0.731998384 -0.697623384 0.0002587082646 -0.7150175452 -0.7150175452 0.0007744971831 -0.6875 -0.7046875 0.1593211535 -0.6904599369 -0.7076474369 0.0007761102965 -0.6875 -0.7105235159 0.0005269300772 -0.6934807181 -0.7046875 0.0002640552524 -0.7046875 -0.6875 0.1593211535 -0.7076474369 -0.6904599369 0.0007761102967 -0.7046875 -0.6934807181 0.0002640552524 -0.7105235159 -0.6875 0.0005269300772 -0.69609375 -0.69609375 0.1606356685 -0.6991065323 -0.6991065323 0.0006134387618 -0.6875 -0.6875 0.2895748378 -0.6703125 -0.8078125 0.4113226013 -0.653125 -0.790625 0.2780084654 -0.6703125 -0.790625 0.3503940432 -0.6359375 -0.8078125 0.2978249214 -0.61875 -0.8078125 0.1954030505 -0.6238968611 -0.7957718611 0.0007027128638 -0.61875 -0.7997802496 0.000183877372 -0.6359375 -0.790625 0.1475412921 -0.6304063618 -0.790625 0.0004886919474 -0.67890625 -0.78203125 0.3453017586 -0.6703125 -0.7734375 0.2607699171 -0.66171875 -0.78203125 0.2690006928 -0.653125 -0.7734375 0.08607995338 -0.67890625 -0.76484375 0.2534601649 -0.6707565069 -0.7566940069 0.0006101465105 -0.6703125 -0.757087332 0.0005031454857 -0.671257031 -0.75625 0.0004623073354 -0.66171875 -0.76484375 0.03446040304 -0.6634830415 -0.7630794585 0.0001453477023 -0.6615933895 -0.7647183895 0.0003071441142 -0.653125 -0.7719635963 0.0004461140126 -0.64453125 -0.78203125 0.1195688414 -0.6429546058 -0.7804546058 0.0002372377283 -0.6359375 -0.7861828983 0.0004221330107 -0.6513789356 -0.7734375 0.0005295206118 -0.6334782839 -0.7881657839 0.0003607066923 -0.6523262203 -0.7726387203 0.0005468803563 -0.6359375 -0.75625 0.06203818245 -0.6363573134 -0.7566698134 0.0007375329172 -0.6359375 -0.7570227504 0.0004143443447 -0.6368562639 -0.75625 0.0003495803996 -0.6312594295 -0.7609280705 0.0001180502727 -0.61875 -0.75625 0.2503672185 -0.6269678652 -0.7644678652 0.0007724485218 -0.61875 -0.77113446 0.0005232686647 -0.61015625 -0.81640625 0.2167996013 -0.6044167459 -0.8106667459 0.0007651475514 -0.6015625 -0.8127869248 0.0002977443702 -0.6082261443 -0.8078125 0.0005091922661 -0.5945170045 -0.8179545045 0.0003653443144 -0.6142098129 -0.8032723129 0.0005855946009 -0.584375 -0.790625 0.1811237768 -0.5883337557 -0.7945837557 0.0003957871417 -0.584375 -0.7974996984 0.0005490173796 -0.5936430216 -0.790625 0.0004909177999 -0.5671875 -0.8078125 0.1021200438 -0.5683636725 -0.8089886725 0.0004603007587 -0.5671875 -0.8098137438 0.0003658242419 -0.5700341403 -0.8078125 0.0003815798312 -0.5606388569 -0.8143611431 4.954932123e-05 -0.55 -0.8078125 0.2489741438 -0.5582132101 -0.8160257101 0.0004183674945 -0.55 -0.8215837955 0.0004722066566 -0.57578125 -0.79921875 0.1497009944 -0.5784035921 -0.8018410921 0.0007015191419 -0.5671875 -0.790625 0.2840315164 -0.55859375 -0.79921875 0.2680694783 -0.55 -0.790625 0.3451014084 -0.6015625 -0.7734375 0.223142046 -0.6078670442 -0.7797420442 5.925661981e-05 -0.6015625 -0.7846161544 0.0004033096329 -0.6158688068 -0.7734375 0.0003930922108 -0.59296875 -0.78203125 0.204628534 -0.5981546879 -0.7872171879 0.0004777354917 -0.584375 -0.7734375 0.3091297134 -0.61015625 -0.76484375 0.238109992 -0.6174712837 -0.7721587837 0.0002979507586 -0.6015625 -0.75625 0.3275822287 -0.59296875 -0.76484375 0.319057574 -0.584375 -0.75625 0.3798221181 -0.5671875 -0.7734375 0.3647007907 -0.55 -0.75625 0.4520852382 -0.6798157036 -0.7485657036 0.0001088471066 -0.653125 -0.7390625 0.1223427182 -0.6548160553 -0.7407535553 0.0005888905765 -0.653125 -0.7422450304 0.0004050383484 -0.6567241311 -0.7390625 0.000349833564 -0.6703125 -0.721875 0.1482615968 -0.6728497386 -0.7244122386 0.0006778352545 -0.6703125 -0.7267607152 0.0002244888872 -0.6755712152 -0.721875 0.0002424324389 -0.66171875 -0.73046875 0.1376546849 -0.6638859391 -0.7326359391 0.0003676275809 -0.653125 -0.721875 0.280615176 -0.6359375 -0.7390625 0.2686891754 -0.645639956 -0.748764956 0.0005412627642 -0.61875 -0.721875 0.3998889241 -0.6703125 -0.7046875 0.287379417 -0.681707716 -0.716082716 0.0006678947754 -0.653125 -0.6875 0.4092007408 -0.6359375 -0.7046875 0.4057599076 -0.61875 -0.6875 0.4797095788 -0.6015625 -0.7390625 0.3913633452 -0.584375 -0.721875 0.469764006 -0.5671875 -0.7390625 0.4619902026 -0.55 -0.721875 0.519611215 -0.6015625 -0.7046875 0.4756211497 -0.584375 -0.6875 0.5301912701 -0.5671875 -0.7046875 0.5256225789 -0.55 -0.6875 0.5693653646 -0.8078125 -0.6703125 0.4113226013 -0.790625 -0.6703125 0.3503940432 -0.790625 -0.653125 0.2780084654 -0.78203125 -0.67890625 0.3453017586 -0.7734375 -0.6703125 0.2607699171 -0.76484375 -0.67890625 0.2534601649 -0.7566940069 -0.6707565069 0.0006101465105 -0.75625 -0.671257031 0.0004623073356 -0.757087332 -0.6703125 0.0005031454855 -0.78203125 -0.66171875 0.2690006928 -0.7734375 -0.653125 0.08607995338 -0.76484375 -0.66171875 0.03446040304 -0.7630794585 -0.6634830415 0.0001453477016 -0.7647183895 -0.6615933895 0.0003071441139 -0.7719635963 -0.653125 0.0004461140124 -0.8078125 -0.6359375 0.2978249214 -0.790625 -0.6359375 0.1475412921 -0.7957718611 -0.6238968611 0.0007027128639 -0.790625 -0.6304063618 0.0004886919474 -0.8078125 -0.61875 0.1954030505 -0.7997802496 -0.61875 0.0001838773725 -0.78203125 -0.64453125 0.1195688414 -0.7804546058 -0.6429546058 0.0002372377286 -0.7734375 -0.6513789356 0.0005295206118 -0.7861828983 -0.6359375 0.0004221330107 -0.7726387203 -0.6523262203 0.0005468803561 -0.75625 -0.6359375 0.06203818245 -0.7566698134 -0.6363573134 0.0007375329174 -0.75625 -0.6368562639 0.0003495803998 -0.7570227504 -0.6359375 0.0004143443447 -0.7881657839 -0.6334782839 0.0003607066925 -0.75625 -0.61875 0.2503672185 -0.7609280705 -0.6312594295 0.0001180502727 -0.7644678652 -0.6269678652 0.0007724485219 -0.77113446 -0.61875 0.0005232686645 -0.7485657036 -0.6798157036 0.0001088471058 -0.721875 -0.6703125 0.1482615968 -0.7244122386 -0.6728497386 0.0006778352544 -0.721875 -0.6755712152 0.0002424324389 -0.7267607152 -0.6703125 0.0002244888877 -0.7390625 -0.653125 0.1223427182 -0.7407535553 -0.6548160553 0.0005888905767 -0.7390625 -0.6567241311 0.0003498335643 -0.7422450304 -0.653125 0.0004050383486 -0.73046875 -0.66171875 0.1376546849 -0.7326359391 -0.6638859391 0.0003676275809 -0.721875 -0.653125 0.280615176 -0.7046875 -0.6703125 0.287379417 -0.716082716 -0.681707716 0.0006678947756 -0.6875 -0.653125 0.4092007408 -0.7390625 -0.6359375 0.2686891754 -0.748764956 -0.645639956 0.0005412627642 -0.721875 -0.61875 0.3998889241 -0.7046875 -0.6359375 0.4057599076 -0.6875 -0.61875 0.4797095788 -0.81640625 -0.61015625 0.2167996013 -0.8106667459 -0.6044167459 0.0007651475514 -0.8078125 -0.6082261443 0.0005091922659 -0.8127869248 -0.6015625 0.0002977443702 -0.8032723129 -0.6142098129 0.000585594601 -0.8179545045 -0.5945170045 0.0003653443144 -0.790625 -0.584375 0.1811237768 -0.7945837557 -0.5883337557 0.0003957871417 -0.790625 -0.5936430216 0.0004909178001 -0.7974996984 -0.584375 0.0005490173794 -0.7734375 -0.6015625 0.223142046 -0.7797420442 -0.6078670442 5.925661981e-05 -0.7734375 -0.6158688068 0.0003930922108 -0.7846161544 -0.6015625 0.0004033096329 -0.76484375 -0.61015625 0.238109992 -0.7721587837 -0.6174712837 0.0002979507589 -0.75625 -0.6015625 0.3275822287 -0.78203125 -0.59296875 0.204628534 -0.7872171879 -0.5981546879 0.0004777354915 -0.7734375 -0.584375 0.3091297134 -0.76484375 -0.59296875 0.319057574 -0.75625 -0.584375 0.3798221181 -0.8078125 -0.5671875 0.1021200438 -0.8089886725 -0.5683636725 0.0004603007585 -0.8078125 -0.5700341403 0.0003815798312 -0.8098137438 -0.5671875 0.0003658242422 -0.79921875 -0.57578125 0.1497009944 -0.8018410921 -0.5784035921 0.0007015191419 -0.790625 -0.5671875 0.2840315164 -0.8078125 -0.55 0.2489741438 -0.8143611431 -0.5606388569 4.954932123e-05 -0.8160257101 -0.5582132101 0.0004183674947 -0.8215837955 -0.55 0.0004722066565 -0.79921875 -0.55859375 0.2680694783 -0.790625 -0.55 0.3451014084 -0.7734375 -0.5671875 0.3647007907 -0.75625 -0.55 0.4520852382 -0.7390625 -0.6015625 0.3913633452 -0.721875 -0.584375 0.469764006 -0.7046875 -0.6015625 0.4756211497 -0.6875 -0.584375 0.5301912701 -0.7390625 -0.5671875 0.4619902026 -0.721875 -0.55 0.519611215 -0.7046875 -0.5671875 0.5256225789 -0.6875 -0.55 0.5693653646 -0.653125 -0.653125 0.4829257298 -0.61875 -0.61875 0.5779638608 -0.584375 -0.653125 0.575842725 -0.55 -0.61875 0.6410423729 -0.653125 -0.584375 0.575842725 -0.61875 -0.55 0.6410423729 -0.584375 -0.584375 0.642680276 -0.55 -0.55 0.6917299 -0.515625 -1.065625 0.6954003943 -0.48125 -1.1 0.7173082215 -0.48125 -1.03125 0.6270653393 -0.446875 -1.065625 0.6549894237 -0.4125 -1.1 0.6830579205 -0.4125 -1.03125 0.5773697104 -0.515625 -0.996875 0.5996148214 -0.48125 -0.9625 0.4974956939 -0.515625 -0.9625 0.5371146791 -0.446875 -0.996875 0.5383655872 -0.4125 -0.996875 0.5048419842 -0.4125 -0.9625 0.4009302587 -0.446875 -0.9625 0.4528913426 -0.378125 -1.065625 0.6146253329 -0.34375 -1.1 0.6502738326 -0.34375 -1.03125 0.5255408434 -0.378125 -1.03125 0.551700354 -0.309375 -1.065625 0.5752433474 -0.275 -1.1 0.6200314171 -0.275 -1.03125 0.4721898121 -0.309375 -1.03125 0.4989844987 -0.3953125 -1.0140625 0.5288146029 -0.378125 -0.996875 0.468808486 -0.3609375 -1.0140625 0.4982413457 -0.34375 -0.996875 0.429593049 -0.3953125 -0.9796875 0.4366636787 -0.378125 -0.9625 0.3367638363 -0.3609375 -0.9796875 0.3874348663 -0.34375 -0.9625 0.2472181667 -0.3609375 -0.9625 0.2967828992 -0.3265625 -1.0140625 0.466237006 -0.309375 -0.996875 0.3861603326 -0.2921875 -1.0140625 0.4326532137 -0.275 -0.996875 0.3367638363 -0.3265625 -0.9796875 0.3282399541 -0.3095247507 -0.9626497507 0.0006160161868 -0.309375 -0.9626978755 0.0005480772281 -0.3265625 -0.9625 0.1783107106 -0.3099899352 -0.9625 0.0001816618084 -0.2921875 -0.9796875 0.2500229763 -0.3090834975 -0.9627915025 0.000534419433 -0.275 -0.9796875 0.1954030505 -0.2832157016 -0.9707157016 0.0005969796077 -0.275 -0.973075062 0.0005045040522 -0.2921875 -0.9680529714 0.000549305693 -0.5328125 -0.9453125 0.5208774169 -0.515625 -0.928125 0.4547201922 -0.4984375 -0.9453125 0.4763430748 -0.48125 -0.928125 0.393684941 -0.5328125 -0.9109375 0.4326532137 -0.515625 -0.89375 0.3229237887 -0.4984375 -0.9109375 0.3601760375 -0.48125 -0.9109375 0.3127423398 -0.48125 -0.89375 0.1559777901 -0.4984375 -0.89375 0.2594655087 -0.4640625 -0.9453125 0.4243885359 -0.446875 -0.928125 0.311786795 -0.4640625 -0.928125 0.3564744487 -0.4296875 -0.9453125 0.3601760375 -0.4125 -0.928125 0.1663906914 -0.4296875 -0.928125 0.2541387293 -0.47265625 -0.91953125 0.3355106864 -0.4640625 -0.9109375 0.2500229763 -0.45546875 -0.91953125 0.2831863119 -0.446875 -0.9109375 0.1475412921 -0.47265625 -0.90234375 0.209713682 -0.4671329141 -0.8968204141 0.0002197738326 -0.4640625 -0.8984130561 0.000278928867 -0.4729809284 -0.89375 0.000265518397 -0.4557721198 -0.9026471198 0.0003998454568 -0.446875 -0.9070847631 0.000331575062 -0.4545486748 -0.9032638252 0.0003447595599 -0.43828125 -0.91953125 0.209713682 -0.4326874316 -0.9139374316 0.0003753834005 -0.4296875 -0.915351671 0.0003121054788 -0.438967979 -0.9109375 0.0002269616971 -0.42109375 -0.91953125 0.03446040304 -0.4214527845 -0.9191722155 0.0001938374431 -0.4209603906 -0.9193978906 0.0006623374462 -0.4125 -0.9232246637 0.0003147885675 -0.4442908168 -0.9083533168 0.0005098717608 -0.4125 -0.89375 0.1619364142 -0.4157663226 -0.8970163226 0.0005226447552 -0.4125 -0.8985230744 0.0003405457251 -0.4227421224 -0.89375 0.0003436995474 -0.5328125 -0.8765625 0.2803296722 -0.515625 -0.8765625 0.1871258918 -0.5221776426 -0.8659276426 0.0007585180997 -0.515625 -0.8698453546 0.0005211186179 -0.5328926861 -0.859375 0.0001360682635 -0.5328125 -0.8594247639 0.0005322641811 -0.50703125 -0.88515625 0.2268268704 -0.5005065382 -0.8786315382 0.0007628233238 -0.4984375 -0.8798068583 0.0004054626389 -0.5041212082 -0.8765625 0.000172763039 -0.48984375 -0.88515625 0.05593733921 -0.4910470665 -0.8839529335 0.0001843972802 -0.489498812 -0.884811312 0.0006944614249 -0.48125 -0.8893247485 0.0004858776884 -0.5113990664 -0.8723365664 0.0005487156734 -0.48125 -0.859375 0.1511231621 -0.4839942276 -0.8621192276 0.0002882337786 -0.48125 -0.8636541069 0.0002659060552 -0.4888502419 -0.859375 0.0004097551359 -0.5433968723 -0.8527718723 0.0002997848042 -0.515625 -0.8421875 0.08741987693 -0.5164901972 -0.8430526972 0.0002943346002 -0.515625 -0.8435821354 0.000365801837 -0.5178997815 -0.8421875 0.0003224990688 -0.5328125 -0.825 0.1959001172 -0.537577641 -0.829765141 0.0005496966111 -0.5328125 -0.832832998 0.0003522493119 -0.544862318 -0.825 0.0004257589279 -0.52421875 -0.83359375 0.1552912429 -0.5270908296 -0.8364658296 0.0007598976117 -0.515625 -0.825 0.2851549332 -0.5120641589 -0.8457483411 0.0003683639904 -0.4984375 -0.8421875 0.2358424803 -0.5057745636 -0.8495245636 0.0005966246439 -0.4984375 -0.8538500905 0.0005213460528 -0.48984375 -0.85078125 0.2008158249 -0.4949429452 -0.8558804452 0.0006937999067 -0.48125 -0.8421875 0.3051938324 -0.50703125 -0.83359375 0.2630248106 -0.4984375 -0.825 0.3410811687 -0.48984375 -0.83359375 0.3244889637 -0.48125 -0.825 0.3824471498 -0.4783747077 -0.8908747077 0.0005938104939 -0.446875 -0.8765625 0.1694704181 -0.450432235 -0.880119735 0.0004232009067 -0.446875 -0.8819312334 0.0003362431684 -0.4573162436 -0.8765625 0.0003506609657 -0.47265625 -0.86796875 0.0490084878 -0.4729270339 -0.8682395339 0.0006642695398 -0.4640625 -0.859375 0.2544741338 -0.4640625 -0.8730097234 0.000250993396 -0.4717397153 -0.8688852847 0.0001011675466 -0.45546875 -0.86796875 0.2189417998 -0.4617401838 -0.8742401838 0.0005876867312 -0.446875 -0.859375 0.313927516 -0.4296875 -0.8765625 0.2584774637 -0.4390016794 -0.8858766794 0.000338255092 -0.4125 -0.859375 0.3901144414 -0.4296875 -0.8904316843 0.0004761562566 -0.4640625 -0.8421875 0.3528867683 -0.446875 -0.825 0.4426564113 -0.4296875 -0.8421875 0.419181178 -0.4125 -0.825 0.4860950818 -0.3953125 -0.9453125 0.2708422708 -0.378125 -0.9453125 0.2032146786 -0.3850189745 -0.9350189745 0.0005583083986 -0.378125 -0.9378281116 0.0005247959204 -0.4013527513 -0.928125 0.0003939753055 -0.3953125 -0.9307137728 0.0005758670969 -0.36953125 -0.95390625 0.2561571939 -0.3609375 -0.9453125 0.06759499584 -0.35234375 -0.95390625 0.1860550985 -0.3478948295 -0.9494573295 0.0003314830438 -0.34375 -0.9509658515 0.0006145600033 -0.359004575 -0.9453125 0.0001585067249 -0.3727785587 -0.9399660587 0.0003890845508 -0.3609375 -0.9445762038 0.0005283149661 -0.3621305883 -0.9441194117 0.000297429602 -0.3604046524 -0.9447796524 0.0005914629497 -0.4091078579 -0.9247328579 0.0005715152811 -0.378125 -0.9109375 0.1223427182 -0.3799509883 -0.9127634883 0.0004506850961 -0.378125 -0.913521421 0.0005710518052 -0.3843082488 -0.9109375 0.0003698199895 -0.40390625 -0.90234375 0.02123634164 -0.403958112 -0.902395612 0.0001030991871 -0.3953125 -0.89375 0.2489741438 -0.3953125 -0.9062162876 0.0004740209759 -0.4037703991 -0.9024796009 0.0003404097256 -0.38671875 -0.90234375 0.2008158249 -0.3920202792 -0.9076452792 0.0007021918759 -0.378125 -0.89375 0.3021819796 -0.3737371206 -0.9153253794 0.0002201709957 -0.3609375 -0.9109375 0.223142046 -0.3677479446 -0.9177479446 0.000729021172 -0.3609375 -0.9204477191 0.0006258393655 -0.35234375 -0.91953125 0.1552912429 -0.35540905 -0.92259655 0.0002092637429 -0.34375 -0.9109375 0.2794606292 -0.34375 -0.9270037055 0.0004742936251 -0.3455352068 -0.9263397932 0.0001672298847 -0.36953125 -0.90234375 0.2680694783 -0.3609375 -0.89375 0.3410811687 -0.35234375 -0.90234375 0.3134536242 -0.34375 -0.89375 0.371723751 -0.3352467299 -0.9539967299 0.0006593972169 -0.3265625 -0.9570042014 0.0005997964247 -0.3349678814 -0.9540946186 0.0002754400477 -0.3224575996 -0.9583950996 0.0004850402921 -0.3265625 -0.928125 0.1694704181 -0.3303134799 -0.9318759799 0.0007372936157 -0.3265625 -0.9331971169 0.000498976163 -0.3407109916 -0.928125 0.0001233372416 -0.3188153267 -0.9358721733 0.0004571373017 -0.309375 -0.928125 0.2388584511 -0.3175516903 -0.9363016903 0.0004782903892 -0.309375 -0.9390351653 0.0004749959528 -0.275 -0.9453125 0.1593211535 -0.2783747017 -0.9486872017 0.0006289932933 -0.275 -0.9496709406 0.0005902214167 -0.2896277726 -0.9453125 0.000319896226 -0.30078125 -0.93671875 0.1706838477 -0.3046433628 -0.9405808628 0.0004550990205 -0.2921875 -0.928125 0.2840315164 -0.2921875 -0.9445244074 0.0006019254416 -0.2933296442 -0.9441703558 0.0004437195471 -0.28359375 -0.93671875 0.2350791232 -0.2915854812 -0.9447104812 0.0002156093594 -0.275 -0.928125 0.3176732434 -0.3265625 -0.9109375 0.3195166129 -0.3429317474 -0.9273067474 0.000206226625 -0.309375 -0.89375 0.4180964348 -0.2921875 -0.9109375 0.3758159039 -0.275 -0.89375 0.4520852382 -0.3953125 -0.8765625 0.3528867683 -0.378125 -0.859375 0.4407182952 -0.3609375 -0.8765625 0.4103345859 -0.34375 -0.859375 0.4780834603 -0.3953125 -0.8421875 0.4654802309 -0.378125 -0.825 0.519611215 -0.3609375 -0.8421875 0.5005547271 -0.34375 -0.825 0.5464114033 -0.309375 -0.859375 0.5070882089 -0.275 -0.825 0.5862682334 -0.240625 -1.065625 0.5383655872 -0.20625 -1.1 0.5937445985 -0.20625 -1.03125 0.4190470224 -0.240625 -1.03125 0.4454121162 -0.171875 -1.065625 0.5062826375 -0.1375 -1.1 0.5730981419 -0.1375 -1.065625 0.4929682263 -0.1375 -1.03125 0.3701676142 -0.171875 -1.03125 0.393684941 -0.2578125 -1.0140625 0.3973410501 -0.240625 -0.996875 0.2780084654 -0.2578125 -0.996875 0.3088883328 -0.2234375 -1.0140625 0.3601760375 -0.20625 -0.996875 0.2013020453 -0.2234375 -0.996875 0.2429143329 -0.26640625 -0.98828125 0.2614181679 -0.2578125 -0.9796875 0.1096977003 -0.24921875 -0.98828125 0.2167996013 -0.2425934613 -0.9816559613 0.0002141679561 -0.240625 -0.9821403563 0.0004833993465 -0.2504244924 -0.9796875 0.0002830170037 -0.2698330104 -0.9745205104 0.0005124421867 -0.2578125 -0.9777692616 0.0002166663629 -0.2604227126 -0.9770772874 0.000222424592 -0.2562935531 -0.9781685531 0.0005878453907 -0.23203125 -0.98828125 0.1573283071 -0.2373837233 -0.9829287767 0.0002017746596 -0.228728801 -0.984978801 0.0005855350891 -0.2234375 -0.9861925423 0.0003954871284 -0.21484375 -0.98828125 0.03446040304 -0.2150749981 -0.9880500019 0.000450924635 -0.2146951139 -0.9881326139 0.0004265321768 -0.20625 -0.9899298191 0.0006034821058 -0.2234375 -0.9625 0.06203818245 -0.2239302874 -0.9629927874 0.000626877481 -0.2234375 -0.963107264 0.0005213552871 -0.2260392547 -0.9625 0.0001335455138 -0.2226472437 -0.9632902563 0.0005386611052 -0.20625 -0.9625 0.1619364142 -0.2098983705 -0.9661483705 2.776923595e-05 -0.20625 -0.9669337749 0.000203015405 -0.1890625 -1.0140625 0.3211157965 -0.171875 -0.996875 0.05143864571 -0.1890625 -0.996875 0.1475412921 -0.1546875 -1.0140625 0.2803296722 -0.1418181181 -1.001193118 0.0003574991318 -0.1375 -1.001795268 0.0001742120925 -0.1695294738 -0.996875 0.0001643741739 -0.1546875 -0.9992856979 0.0006551272812 -0.2004878759 -0.9911128759 0.0006357385503 -0.1890625 -0.9933556616 0.0005756149416 -0.1934213996 -0.9925161004 0.0003974378086 -0.1861020386 -0.9939145386 0.0005127154775 -0.171875 -0.9964732826 0.0002484082816 -0.1723605752 -0.9963894248 0.0004232334118 -0.2006357253 -0.9681142747 0.0004351002387 -0.1890625 -0.9625 0.2110651695 -0.1956888378 -0.9691263378 0.0002596185685 -0.1890625 -0.9704407871 0.0004077220946 -0.18046875 -0.97109375 0.07893331064 -0.1812965751 -0.9719215751 0.0001122891818 -0.171875 -0.9625 0.2447190892 -0.171875 -0.9736318409 0.0002749207558 -0.1792639911 -0.9722985089 0.000322042675 -0.1715323567 -0.9965323567 0.0005398649199 -0.16328125 -0.97109375 0.1552912429 -0.1667159438 -0.9745284438 0.0005951948929 -0.1546875 -0.9625 0.2699215426 -0.1546875 -0.9765099525 0.0005474909363 -0.1584720492 -0.9759029508 0.0003665220706 -0.14609375 -0.97109375 0.1968971701 -0.1519410431 -0.9769410431 0.0006262089138 -0.1375 -0.9625 0.2895748378 -0.1375 -0.9790780067 0.0001495486744 -0.1382094145 -0.9789780855 0.0004684164896 -0.1203125 -1.0828125 0.5314004237 -0.103125 -1.1 0.5654358947 -0.103125 -1.065625 0.4820268125 -0.0859375 -1.0828125 0.5235538846 -0.06875 -1.1 0.5598088743 -0.06875 -1.065625 0.4738607323 -0.1203125 -1.0484375 0.4326532137 -0.103125 -1.03125 0.349619734 -0.0859375 -1.0484375 0.4201266769 -0.06875 -1.03125 0.3334025798 -0.0859375 -1.03125 0.3408794929 -0.0515625 -1.0828125 0.5181691088 -0.034375 -1.1 0.556367717 -0.034375 -1.065625 0.468808486 -0.0171875 -1.0828125 0.5154280904 0 -1.1 0.5552094825 0 -1.065625 0.4670976066 -0.0515625 -1.0484375 0.4113226013 -0.034375 -1.03125 0.3229237887 -0.0515625 -1.03125 0.3273648643 -0.0171875 -1.0484375 0.4067708447 0 -1.03125 0.3192891395 -0.0171875 -1.03125 0.3202048283 -0.1203125 -1.0140625 0.2384877694 -0.131815964 -1.002559036 0.00047978856 -0.103125 -1.0140625 0.2176616484 -0.1112941504 -1.00504415 0.0006634762524 -0.103125 -1.005915183 0.0006342201077 -0.1203125 -1.004004484 0.0005841851098 -0.09453125 -1.02265625 0.2898495142 -0.0859375 -1.0140625 0.1973971277 -0.07734375 -1.02265625 0.2785918219 -0.06875 -1.0140625 0.1783107106 -0.09571024179 -1.006647742 0.0006492157861 -0.0859375 -1.007529068 0.0005058239447 -0.09310829043 -1.00689171 0.0004779834231 -0.07990078926 -1.008025789 0.0006530424077 -0.06875 -1.008847582 0.0001515887835 -0.07436309457 -1.008449405 0.0004937926433 -0.1203125 -0.9796875 0.1021200438 -0.1217820108 -0.9811570108 0.0004546698537 -0.1203125 -0.9813382983 0.0003940922929 -0.1330879271 -0.9796875 0.0001414586483 -0.1184331417 -0.9815668583 0.0005587142782 -0.103125 -0.9796875 0.1482615968 -0.1063833237 -0.9829458237 0.0005662030267 -0.103125 -0.9832929909 0.0006541576263 -0.12890625 -0.97109375 0.2256064082 -0.1369653821 -0.9791528821 0.0006260543225 -0.1203125 -0.9625 0.3051938324 -0.11171875 -0.97109375 0.2468610814 -0.103125 -0.9625 0.3176732434 -0.09910631776 -0.9837061822 0.0005316647762 -0.0859375 -0.9796875 0.176586065 -0.09076119065 -0.9845111907 0.0006370516084 -0.0859375 -0.9849439859 0.0005497156922 -0.08019694686 -0.9854280531 7.741412429e-05 -0.06875 -0.9796875 0.1959001172 -0.07490676045 -0.9858442605 0.0004877422765 -0.06875 -0.9862927258 0.0005672477618 -0.09453125 -0.97109375 0.2630248106 -0.0859375 -0.9625 0.3275822287 -0.07734375 -0.97109375 0.2753551239 -0.06875 -0.9625 0.3352992465 -0.06015625 -1.02265625 0.2690006928 -0.0515625 -1.0140625 0.161293115 -0.04296875 -1.02265625 0.2614181679 -0.034375 -1.0140625 0.1475412921 -0.0638566792 -1.009169179 0.0005992438032 -0.0515625 -1.009871972 0.0005490719122 -0.05598880053 -1.009636199 5.981308145e-05 -0.04756801128 -1.010068011 0.0005862773698 -0.034375 -1.010603023 0.0006051538542 -0.03796291947 -1.010474581 0.0004514599598 -0.02578125 -1.02265625 0.2561571939 -0.0171875 -1.0140625 0.1384523019 -0.00859375 -1.02265625 0.2534601649 0 -1.0140625 0.1352540343 -0.0310239017 -1.010711402 0.0002582317685 -0.0171875 -1.011041391 0.0005895216455 -0.02026565075 -1.010984349 0.00041243