<VTKFile type='UnstructuredGrid' version='0.1' byte_order='LittleEndian'>
<!-- surface_plot_corner -->
  <UnstructuredGrid>
    <Piece NumberOfPoints='5' NumberOfCells='4'>
      <PointData Scalars='f(x,y) x y'>
        <DataArray Name='f(x,y)' type='Float64' format='ascii' NumberOfComponents='1'>
          1 1.191637529 1.191637529 1.191637529 1.191637529 
        </DataArray>
        <DataArray Name='x' type='Float64' format='ascii' NumberOfComponents='1'>
          0 -1.1 -1.1 1.1 1.1 
        </DataArray>
        <DataArray Name='y' type='Float64' format='ascii' NumberOfComponents='1'>
          0 -1.1 1.1 -1.1 1.1 
        </DataArray>
      </PointData>
      <Points>
        <DataArray Name='Points' type='Float64' format='ascii' NumberOfComponents='3'>
          0 0 1
          -1.1 -1.1 1.191637529
          -1.1 1.1 1.191637529
          1.1 -1.1 1.191637529
          1.1 1.1 1.191637529
        </DataArray>
      </Points>
      <Cells>
        <DataArray type='Int32' Name='connectivity' format='ascii'>
          2 1 0 
          3 4 0 
          1 3 0 
          4 2 0 
        </DataArray>
        <DataArray type='Int32' Name='offsets' format='ascii'>
          3 6 9 12 
        </DataArray>
        <DataArray type='Int8' Name='types' format='ascii'>
          5 5 5 5 
        </DataArray>
      </Cells>
    </Piece>
  </UnstructuredGrid>
</VTKFile>

