<VTKFile type='UnstructuredGrid' version='0.1' byte_order='LittleEndian'>
<!-- surface_plot_corner -->
  <UnstructuredGrid>
    <Piece NumberOfPoints='6237' NumberOfCells='12284'>
      <PointData Scalars='f(x,y) x y'>
        <DataArray Name='f(x,y)' type='Float64' format='ascii' NumberOfComponents='1'>
          1.127436597 1.191637529 1.128484188 1.128484188 1.061580484 1.062692997 1.066023569 0.9949285464 1.062692997 1.066023569 0.9949285464 0.9937401729 0.9234784784 0.9984851808 1.004384917 0.9285825892 0.934923543 0.9437293044 0.8626132172 0.9247571472 0.851584002 0.8557366162 0.7791221021 0.9984851808 1.004384917 0.9285825892 0.9247571472 0.851584002 0.934923543 0.9437293044 0.8626132172 0.8557366162 0.7791221021 0.8501952901 0.7730317749 0.7745588462 0.6923973299 0.7745588462 0.6923973299 0.6906886283 0.601040764 0.8721493744 0.8842590472 0.7971139348 0.8103457017 0.8262301435 0.7322109071 0.7866687081 0.7059180636 0.7175397419 0.6317139384 0.7497525634 0.7699685464 0.6680779333 0.6906886283 0.7158910532 0.6049599677 0.6483301869 0.5561095328 0.5790111452 0.4784414802 0.6974983199 0.6088539439 0.6184816337 0.5210041387 0.6030035499 0.5025326482 0.5095379341 0.3915114941 0.4491419771 0.5366453962 0.426193178 0.4504554986 0.404865429 0.3182594264 0.3745439936 0.406322109 0.3483919533 0.2519455546 0.3274099351 0.3608867659 0.2828772371 0.3001057756 0.2025472553 0.2454120021 0.2667531191 0.2253307031 0.1487250504 0.2061612025 0.2352717221 0.176015469 0.1893560479 0.1085347187 0.1624887316 0.04823546575 0.08309944391 0.1299038106 0.8721493744 0.8842590472 0.7971139348 0.7866687081 0.7059180636 0.8103457017 0.8262301435 0.7322109071 0.7175397419 0.6317139384 0.6974983199 0.6088539439 0.6030035499 0.5025326482 0.6184816337 0.5210041387 0.5095379341 0.4491419771 0.3915114941 0.7497525634 0.7699685464 0.6680779333 0.6483301869 0.5561095328 0.6906886283 0.7158910532 0.6049599677 0.5790111452 0.4784414802 0.5366453962 0.426193178 0.406322109 0.3274099351 0.2519455546 0.3483919533 0.4504554986 0.3745439936 0.3182594264 0.404865429 0.3608867659 0.2828772371 0.2667531191 0.2061612025 0.1487250504 0.2253307031 0.3001057756 0.2454120021 0.2025472553 0.2352717221 0.176015469 0.1624887316 0.04823546575 0.1893560479 0.1085347187 0.08309944391 0.1299038106 0.5001757504 0.4438490206 0.3792467864 0.4438490206 0.4458412431 0.382349848 0.3861936144 0.3126405934 0.3800249272 0.3049878327 0.3078799101 0.2661988287 0.2111168219 0.2617222481 0.4458412431 0.382349848 0.3800249272 0.3049878327 0.3861936144 0.3126405934 0.3078799101 0.2617222481 0.2111168219 0.2661988287 0.3040176933 0.2594549952 0.2054434989 0.2594549952 0.2603075292 0.2068764162 0.208653725 0.1373667678 0.2058026636 0.1329961965 0.1346517862 0.07899515412 0.2603075292 0.2068764162 0.2058026636 0.1329961965 0.208653725 0.1373667678 0.1346517862 0.07899515412 0.1324397342 0.08265019472 0.081751756 0.1753832299 0.081751756 0.1753832299 0.175803818 0.2338535867 0.3191862823 0.2272887068 0.2727759855 0.2386996838 0.1881823521 0.08910360893 0.1717684329 0.2692333045 0.2180009497 0.2223613727 0.1574097584 0.2142420552 0.1457151679 0.1511875194 0.03890593624 0.1642967078 0.05120615503 0.07164535324 0.1376331032 0.02016169984 0.1538487361 0.1464713536 0.2126837441 0.1970020671 0.1201602121 0.1346517862 0.0771026862 0.1050773989 0.1141694704 0.09817052089 0.1828058225 0.04423558646 0.1604285034 0.1464713536 0.2119881243 0.1724103877 0.2306739023 0.2218612452 0.2690949821 0.1270294242 0.1997923727 0.1918728369 0.2455611797 0.2066963683 0.2573101166 0.2517977355 0.2942648414 0.2830066668 0.3543810626 0.1410799931 0.06684140511 0.05602167201 0.1649677407 0.07417350595 0.1719815011 0.1689488123 0.228744877 0.222193873 0.3099111516 0.2325869293 0.3174452463 0.3146411026 0.38012128 0.3031652679 0.3706782213 0.3634349473 0.4199958147 0.3762154781 0.4311027828 0.4262790954 0.4741769185 0.3191862823 0.2727759855 0.2272887068 0.2692333045 0.2180009497 0.2142420552 0.1457151679 0.2223613727 0.1574097584 0.1511875194 0.03890593624 0.2386996838 0.1717684329 0.08910360893 0.1881823521 0.1642967078 0.05120615503 0.02016169984 0.1538487361 0.07164535324 0.1376331032 0.1464713536 0.2126837441 0.1410799931 0.06684140511 0.07417350595 0.1719815011 0.05602167201 0.1649677407 0.1689488123 0.228744877 0.2325869293 0.3174452463 0.222193873 0.3099111516 0.3146411026 0.38012128 0.1970020671 0.1201602121 0.1050773989 0.1141694704 0.1346517862 0.0771026862 0.09817052089 0.1828058225 0.1270294242 0.1997923727 0.2066963683 0.2573101166 0.1918728369 0.2455611797 0.2517977355 0.2942648414 0.04423558646 0.1604285034 0.1724103877 0.2306739023 0.1464713536 0.2119881243 0.2218612452 0.2690949821 0.2830066668 0.3543810626 0.3031652679 0.3706782213 0.3762154781 0.4311027828 0.3634349473 0.4199958147 0.4262790954 0.4741769185 0.3832172605 0.4840422244 0.481594844 0.5609353238 0.481594844 0.5609353238 0.5630379372 0.6284902545 0.6335817084 0.6645310847 0.5432109397 0.5790111452 0.6165681228 0.4833557825 0.5095379341 0.3975019654 0.4384921785 0.4398375055 0.404865429 0.3107450724 0.3551105682 0.5277642999 0.5728560574 0.426193178 0.4543732806 0.4809049087 0.5344389582 0.3729632187 0.39898553 0.4296448843 0.3697813966 0.3982444385 0.3345501878 0.3406751683 0.2634098814 0.3001057756 0.2111168219 0.2380800893 0.3673769458 0.2991198025 0.3371888033 0.2634098814 0.2577414675 0.1487250504 0.1817947095 0.2125114887 0.1881823521 0.04506939094 0.1085347187 0.4213132835 0.3567704532 0.3769027249 0.3049878327 0.3371888033 0.2542797733 0.279726778 0.2478077711 0.174329071 0.2173223502 0.3301056294 0.2472110055 0.2770740326 0.279726778 0.1776858622 0.2145864937 0.2625674207 0.2125114887 0.2301944872 0.1717684329 0.1939798284 0.1189246249 0.147227801 0.03890593624 0.1939798284 0.1201602121 0.1511875194 0.006051536478 0.07946506947 0.1287617561 0.09195548133 0.1762234022 0.2285847251 0.1850160994 0.06629126074 0.1497148983 0.2014504291 0.1296215947 0.1531289859 0.006051536478 0.1022273909 0.1141694704 0.081751756 0.1728382101 0.1301901029 0.08265019472 0.03695898804 0.1576422349 0.1095478545 0.1883768559 0.1741153701 0.2313133359 0.1381686512 0.2056216755 0.1903269955 0.2431432753 0.219182051 0.2663363636 0.2552930875 0.2962658224 0.08309944391 0.1276094812 0.09511377849 0.1787202226 0.1524018319 0.2147570848 0.1979355117 0.2485504853 0.2168105992 0.3021892774 0.2745290712 0.3459446984 0.32571286 0.3862884285 0.2233555357 0.1912962056 0.06629126074 0.1329961965 0.215616508 0.1545690835 0.1846164997 0.1085347187 0.1183019921 0.09114880948 0.03985140858 0.1428982921 0.09315566819 0.1179868571 0.07007773307 0.1649677407 0.1504509822 0.2119881243 0.1903269955 0.2413139488 0.1338242711 0.1997923727 0.1741153701 0.2280982433 0.2218612452 0.2663363636 0.2482531745 0.2881785471 0.1492207951 0.0160869221 0.1050773989 0.1033024042 0.1011349172 0.1787202226 0.1464713536 0.2070533597 0.02016169984 0.1449508268 0.09817052089 0.1753832299 0.1791329759 0.2306739023 0.2052621942 0.2509162896 0.2520908659 0.3248046288 0.2912375936 0.3543810626 0.2745290712 0.3442326158 0.3183744724 0.378563795 0.3666718454 0.4199958147 0.4005550348 0.4485654216 0.4071384516 0.4937104415 0.4398375055 0.5025326482 0.3256004069 0.3483919533 0.406322109 0.4784414802 0.3930176722 0.2870240626 0.3049878327 0.3078799101 0.2272887068 0.2454120021 0.279726778 0.1905225134 0.2090073732 0.2183394585 0.1620335854 0.1970020671 0.1329961965 0.1183019921 0.08441839162 0.07164535324 0.1252731391 0.1747521962 0.09854904395 0.1511875194 0.04823546575 0.05602167201 0.1538487361 0.1040148633 0.1762234022 0.2531153548 0.1526459343 0.1717684329 0.2285847251 0.1125433944 0.1329961965 0.1255699895 0.06684140511 0.09627460116 0.1033024042 0.1338242711 0.1945485058 0.1562304675 0.2098874326 0.05797064518 0.1276094812 0.04423558646 0.1459662713 0.1741153701 0.2228576392 0.1887684956 0.2338535867 0.4323864103 0.469717751 0.382349848 0.4241086701 0.4633859757 0.3745439936 0.3371888033 0.2722339584 0.3265064246 0.2611572802 0.2661988287 0.4184992253 0.4595450366 0.3697813966 0.4156661164 0.4582575695 0.3681801741 0.3191862823 0.2542797733 0.2571677544 0.3154625201 0.2519455546 0.2525311321 0.2068764162 0.1973765932 0.06629126074 0.09074614747 0.2340127409 0.188965626 0.2276134032 0.1817947095 0.1410799931 0.03383813723 0.1301901029 0.03890593624 0.081751756 0.1604285034 0.1040148633 0.1719815011 0.2008982514 0.2431432753 0.2109403935 0.2509162896 0.1198499632 0.1811826383 0.1315983102 0.1883768559 0.219182051 0.2573101166 0.2258204443 0.2624255847 0.2223613727 0.176015469 0.2183394585 0.1717684329 0.1207732654 0.05984599376 0.1131977063 0.07112379173 0.215616508 0.1691690399 0.2142420552 0.1682936538 0.1078521213 0.0771026862 0.1050773989 0.07899515412 0.1937877987 0.2690949821 0.1997923727 0.2712816802 0.1381686512 0.1997923727 0.1671911507 0.2201905691 0.2271248409 0.2685455254 0.2458617458 0.2840485764 0.2376130488 0.3099111516 0.322064568 0.378563795 0.3467975702 0.3983363842 0.2657812041 0.3302165483 0.2871516232 0.3459446984 0.3666718454 0.4143306914 0.382445615 0.4269715301 0.4511919977 0.5261520099 0.481594844 0.5481502987 0.3031652679 0.3576999004 0.3146411026 0.3658653056 0.394610914 0.4365503085 0.4034942592 0.4432655807 0.3706782213 0.4485654216 0.5008391396 0.5609353238 0.51018915 0.5651327278 0.2520908659 0.3302165483 0.3146411026 0.378563795 0.3433733732 0.402761464 0.3916050206 0.4432655807 0.4185867219 0.5078677855 0.461548853 0.5438218343 0.5283930533 0.5976516544 0.481594844 0.5567062735 0.5283930533 0.5936842069 0.5795843069 0.6396715466 0.6190182499 0.6721002529 0.554579655 0.6209242104 0.611334989 0.6685747434 0.6266073082 0.6825675333 0.6773541125 0.7261843774 0.6560862891 0.7063882608 0.6911691861 0.7358827607 0.7180023285 0.7611412073 0.7501952871 0.7885905148 0.5630379372 0.6209242104 0.5876828173 0.6396715466 0.6488421177 0.6962791735 0.6703398159 0.7130480348 0.6035539278 0.6506607219 0.611334989 0.6542827657 0.6842965138 0.7229226705 0.6911691861 0.7261843774 0.7180023285 0.7580299301 0.7374867584 0.7734611739 0.7749873991 0.8092965696 0.7930730381 0.8237680195 0.7501952871 0.7825738783 0.7564694929 0.7855879566 0.8049044004 0.8323301253 0.8107553384 0.8351646544 0.6335817084 0.6645310847 0.5432109397 0.5095379341 0.4384921785 0.3975019654 0.5790111452 0.6165681228 0.4833557825 0.4398375055 0.3551105682 0.3107450724 0.404865429 0.4213132835 0.3567704532 0.3371888033 0.2542797733 0.3769027249 0.3049878327 0.279726778 0.2173223502 0.174329071 0.2478077711 0.2285847251 0.1497148983 0.06629126074 0.1850160994 0.1301901029 0.08265019472 0.1095478545 0.1883768559 0.03695898804 0.1576422349 0.1741153701 0.2313133359 0.2014504291 0.1296215947 0.1022273909 0.1141694704 0.1531289859 0.006051536478 0.081751756 0.1728382101 0.1381686512 0.2056216755 0.219182051 0.2663363636 0.1903269955 0.2431432753 0.2552930875 0.2962658224 0.3301056294 0.2770740326 0.2472110055 0.2625674207 0.2125114887 0.1939798284 0.1189246249 0.2301944872 0.1717684329 0.147227801 0.03890593624 0.279726778 0.2145864937 0.1776858622 0.1939798284 0.1201602121 0.07946506947 0.1287617561 0.1511875194 0.006051536478 0.09195548133 0.1762234022 0.08309944391 0.1276094812 0.1524018319 0.2147570848 0.09511377849 0.1787202226 0.1979355117 0.2485504853 0.2745290712 0.3459446984 0.2168105992 0.3021892774 0.32571286 0.3862884285 0.5277642999 0.5728560574 0.4543732806 0.426193178 0.4296448843 0.3697813966 0.3406751683 0.2634098814 0.3982444385 0.3345501878 0.3001057756 0.2380800893 0.2111168219 0.4809049087 0.5344389582 0.39898553 0.3729632187 0.3673769458 0.2991198025 0.2577414675 0.1817947095 0.1487250504 0.3371888033 0.2634098814 0.2125114887 0.1085347187 0.04506939094 0.1881823521 0.2233555357 0.1329961965 0.06629126074 0.1912962056 0.09315566819 0.1179868571 0.1504509822 0.2119881243 0.07007773307 0.1649677407 0.1903269955 0.2413139488 0.215616508 0.1545690835 0.1183019921 0.09114880948 0.1846164997 0.1085347187 0.03985140858 0.1428982921 0.1338242711 0.1997923727 0.2218612452 0.2663363636 0.1741153701 0.2280982433 0.2482531745 0.2881785471 0.2745290712 0.3442326158 0.3666718454 0.4199958147 0.3183744724 0.378563795 0.4005550348 0.4485654216 0.1492207951 0.0160869221 0.1011349172 0.1787202226 0.1050773989 0.1033024042 0.1464713536 0.2070533597 0.2520908659 0.3248046288 0.02016169984 0.1449508268 0.1791329759 0.2306739023 0.09817052089 0.1753832299 0.2052621942 0.2509162896 0.2912375936 0.3543810626 0.4071384516 0.4937104415 0.2520908659 0.3302165483 0.3433733732 0.402761464 0.3146411026 0.378563795 0.3916050206 0.4432655807 0.461548853 0.5438218343 0.4185867219 0.5078677855 0.5283930533 0.5976516544 0.554579655 0.6209242104 0.6266073082 0.6825675333 0.611334989 0.6685747434 0.6773541125 0.7261843774 0.481594844 0.5567062735 0.5795843069 0.6396715466 0.5283930533 0.5936842069 0.6190182499 0.6721002529 0.6560862891 0.7063882608 0.7180023285 0.7611412073 0.6911691861 0.7358827607 0.7501952871 0.7885905148 0.4398375055 0.5025326482 0.3483919533 0.3256004069 0.3078799101 0.2454120021 0.2272887068 0.2183394585 0.1620335854 0.1183019921 0.08441839162 0.1970020671 0.1329961965 0.07164535324 0.1252731391 0.279726778 0.2090073732 0.1905225134 0.1747521962 0.09854904395 0.05602167201 0.1538487361 0.1511875194 0.04823546575 0.1040148633 0.1762234022 0.406322109 0.4784414802 0.3049878327 0.2870240626 0.3930176722 0.2531153548 0.1717684329 0.1526459343 0.1255699895 0.06684140511 0.1338242711 0.1945485058 0.09627460116 0.1033024042 0.1562304675 0.2098874326 0.2285847251 0.1329961965 0.1125433944 0.05797064518 0.1276094812 0.1741153701 0.2228576392 0.04423558646 0.1459662713 0.1887684956 0.2338535867 0.1381686512 0.1997923727 0.2271248409 0.2685455254 0.1671911507 0.2201905691 0.2458617458 0.2840485764 0.322064568 0.378563795 0.2376130488 0.3099111516 0.3467975702 0.3983363842 0.4511919977 0.5261520099 0.2657812041 0.3302165483 0.3666718454 0.4143306914 0.2871516232 0.3459446984 0.382445615 0.4269715301 0.481594844 0.5481502987 0.4323864103 0.469717751 0.382349848 0.3371888033 0.2722339584 0.4241086701 0.4633859757 0.3745439936 0.3265064246 0.2661988287 0.2611572802 0.2068764162 0.09074614747 0.06629126074 0.1973765932 0.081751756 0.1604285034 0.2008982514 0.2431432753 0.1040148633 0.1719815011 0.2109403935 0.2509162896 0.2340127409 0.188965626 0.1410799931 0.03383813723 0.2276134032 0.1817947095 0.1301901029 0.03890593624 0.1198499632 0.1811826383 0.219182051 0.2573101166 0.1315983102 0.1883768559 0.2258204443 0.2624255847 0.4184992253 0.4595450366 0.3697813966 0.3191862823 0.2571677544 0.2542797733 0.4156661164 0.4582575695 0.3681801741 0.3154625201 0.2525311321 0.2519455546 0.2223613727 0.176015469 0.1207732654 0.05984599376 0.2183394585 0.1717684329 0.1131977063 0.07112379173 0.1937877987 0.2690949821 0.215616508 0.1691690399 0.1078521213 0.0771026862 0.2142420552 0.1682936538 0.1050773989 0.07899515412 0.1997923727 0.2712816802 0.3031652679 0.3576999004 0.394610914 0.4365503085 0.3146411026 0.3658653056 0.4034942592 0.4432655807 0.5008391396 0.5609353238 0.3706782213 0.4485654216 0.51018915 0.5651327278 0.5630379372 0.6209242104 0.6488421177 0.6962791735 0.5876828173 0.6396715466 0.6703398159 0.7130480348 0.7180023285 0.7580299301 0.7749873991 0.8092965696 0.7374867584 0.7734611739 0.7930730381 0.8237680195 0.6035539278 0.6506607219 0.6842965138 0.7229226705 0.611334989 0.6542827657 0.6911691861 0.7261843774 0.7501952871 0.7825738783 0.8049044004 0.8323301253 0.7564694929 0.7855879566 0.8107553384 0.8351646544 0.6842965138 0.7326642307 0.731049652 0.7734611739 0.731049652 0.7734611739 0.7749873991 0.8122114872 0.7688643208 0.8063711149 0.7990106187 0.8323301253 0.8107553384 0.8436110997 0.8393985012 0.8684576846 0.7688643208 0.8063711149 0.8107553384 0.8436110997 0.7990106187 0.8323301253 0.8393985012 0.8684576846 0.8450106323 0.8738832159 0.8725299959 0.8978924977 0.8725299959 0.8978924977 0.8992075504 0.9212762886 0.8223323347 0.8519738112 0.8393985012 0.8657321685 0.8616277292 0.8873019145 0.877930361 0.9005206827 0.8505857357 0.8738832159 0.8561245346 0.8765833888 0.8886326399 0.9083596135 0.8939357324 0.9109576006 0.8939357324 0.9161314726 0.9096595345 0.9289400882 0.9199927819 0.9390612001 0.9352786182 0.9515612172 0.9199927819 0.9365411764 0.9251161245 0.9390612001 0.9453318696 0.9589830225 0.9503186143 0.9614442262 0.8223323347 0.8519738112 0.8616277292 0.8873019145 0.8393985012 0.8657321685 0.877930361 0.9005206827 0.8939357324 0.9161314726 0.9199927819 0.9390612001 0.9096595345 0.9289400882 0.9352786182 0.9515612172 0.8505857357 0.8738832159 0.8886326399 0.9083596135 0.8561245346 0.8765833888 0.8939357324 0.9109576006 0.9199927819 0.9365411764 0.9453318696 0.9589830225 0.9251161245 0.9390612001 0.9503186143 0.9614442262 0.9403186794 0.956515486 0.9552793276 0.9687903217 0.9552793276 0.9687903217 0.9700092622 0.9809115658 0.9651242634 0.9760811314 0.9700092622 0.9784993293 0.97970619 0.9881129427 0.9845188387 0.9905017668 0.9651242634 0.9760811314 0.97970619 0.9881129427 0.9700092622 0.9784993293 0.9845188387 0.9905017668 0.9893080758 0.9952622142 0.9940742396 0.9976339196 0.9940742396 0.9976339196 0.9988176604 1 0.4156661164 0.4595450366 0.3697813966 0.4184992253 0.4633859757 0.3745439936 0.3154625201 0.2542797733 0.2525311321 0.3191862823 0.2611572802 0.2571677544 0.4241086701 0.469717751 0.382349848 0.4323864103 0.4784414802 0.3930176722 0.3265064246 0.2722339584 0.2661988287 0.3371888033 0.2870240626 0.2142420552 0.1691690399 0.215616508 0.1717684329 0.1050773989 0.0771026862 0.1078521213 0.07112379173 0.2183394585 0.176015469 0.2223613727 0.1817947095 0.1131977063 0.05984599376 0.1207732654 0.03890593624 0.1997923727 0.2690949821 0.1937877987 0.1883768559 0.2624255847 0.2276134032 0.188965626 0.2340127409 0.1973765932 0.1301901029 0.03383813723 0.1410799931 0.06629126074 0.2068764162 0.1125433944 0.09074614747 0.1315983102 0.1811826383 0.1198499632 0.1719815011 0.2258204443 0.2573101166 0.219182051 0.2509162896 0.1040148633 0.1604285034 0.081751756 0.1459662713 0.2109403935 0.2431432753 0.2008982514 0.2338535867 0.406322109 0.5025326482 0.3256004069 0.3049878327 0.4398375055 0.5344389582 0.3729632187 0.3483919533 0.2285847251 0.1526459343 0.1329961965 0.2531153548 0.1905225134 0.1717684329 0.04423558646 0.1276094812 0.05797064518 0.1033024042 0.1887684956 0.2228576392 0.1741153701 0.2098874326 0.09627460116 0.06684140511 0.1255699895 0.04823546575 0.1562304675 0.1945485058 0.1338242711 0.1762234022 0.279726778 0.2272887068 0.2090073732 0.3078799101 0.2634098814 0.2454120021 0.1511875194 0.09854904395 0.1747521962 0.1329961965 0.1040148633 0.1538487361 0.05602167201 0.1252731391 0.1970020671 0.1620335854 0.2183394585 0.1881823521 0.07164535324 0.08441839162 0.1183019921 0.04506939094 0.3706782213 0.3658653056 0.4432655807 0.3146411026 0.3576999004 0.3031652679 0.3459446984 0.4034942592 0.4365503085 0.394610914 0.4269715301 0.51018915 0.5609353238 0.5008391396 0.5481502987 0.2871516232 0.3302165483 0.2657812041 0.3099111516 0.382445615 0.4143306914 0.3666718454 0.3983363842 0.2376130488 0.2201905691 0.2840485764 0.1671911507 0.1997923727 0.1381686512 0.1753832299 0.2458617458 0.2685455254 0.2271248409 0.2509162896 0.3467975702 0.378563795 0.322064568 0.3543810626 0.481594844 0.5261520099 0.4511919977 0.4937104415 0.4809049087 0.5728560574 0.426193178 0.39898553 0.5277642999 0.6165681228 0.4833557825 0.4543732806 0.3371888033 0.2991198025 0.3673769458 0.3345501878 0.2125114887 0.1487250504 0.1085347187 0.2577414675 0.2111168219 0.1817947095 0.3982444385 0.3697813966 0.4296448843 0.404865429 0.3001057756 0.2634098814 0.2380800893 0.3406751683 0.3107450724 0.5790111452 0.6645310847 0.5432109397 0.6335817084 0.7158910532 0.6049599677 0.4398375055 0.3975019654 0.3551105682 0.5095379341 0.4784414802 0.4384921785 0.09817052089 0.1449508268 0.02016169984 0.1033024042 0.2052621942 0.2306739023 0.1791329759 0.2070533597 0.1050773989 0.0160869221 0.1492207951 0.1085347187 0.1464713536 0.1787202226 0.1011349172 0.1428982921 0.2912375936 0.3248046288 0.2520908659 0.2280982433 0.2881785471 0.1846164997 0.1545690835 0.215616508 0.1912962056 0.03985140858 0.09114880948 0.1183019921 0.06629126074 0.2233555357 0.1776858622 0.1329961965 0.1741153701 0.1997923727 0.1338242711 0.1649677407 0.2482531745 0.2663363636 0.2218612452 0.2413139488 0.07007773307 0.1179868571 0.09315566819 0.006051536478 0.1903269955 0.2119881243 0.1504509822 0.1762234022 0.4071384516 0.378563795 0.4485654216 0.3183744724 0.3442326158 0.2745290712 0.3021892774 0.4005550348 0.4199958147 0.3666718454 0.3862884285 0.279726778 0.2472110055 0.2145864937 0.3301056294 0.3049878327 0.2770740326 0.1511875194 0.1201602121 0.1939798284 0.1717684329 0.09195548133 0.1287617561 0.07946506947 0.03890593624 0.2301944872 0.2125114887 0.2625674207 0.2478077711 0.147227801 0.1189246249 0.1939798284 0.174329071 0.3769027249 0.3567704532 0.4213132835 0.404865429 0.279726778 0.2542797733 0.2173223502 0.3371888033 0.3182594264 0.2168105992 0.1787202226 0.2485504853 0.09511377849 0.1276094812 0.08309944391 0.006051536478 0.1979355117 0.2147570848 0.1524018319 0.1728382101 0.32571286 0.3459446984 0.2745290712 0.2431432753 0.2962658224 0.1531289859 0.1296215947 0.2014504291 0.1850160994 0.081751756 0.1141694704 0.1022273909 0.06629126074 0.2285847251 0.2025472553 0.1497148983 0.1903269955 0.2056216755 0.1381686512 0.1576422349 0.2552930875 0.2663363636 0.219182051 0.2313133359 0.03695898804 0.08265019472 0.1301901029 0.1085347187 0.1741153701 0.1883768559 0.1095478545 0.1299038106 0.611334989 0.6506607219 0.6035539278 0.6396715466 0.6911691861 0.7229226705 0.6842965138 0.7130480348 0.5876828173 0.6209242104 0.5630379372 0.5936842069 0.6703398159 0.6962791735 0.6488421177 0.6721002529 0.7564694929 0.7825738783 0.7501952871 0.7734611739 0.8107553384 0.8323301253 0.8049044004 0.8237680195 0.7374867584 0.7580299301 0.7180023285 0.7358827607 0.7930730381 0.8092965696 0.7749873991 0.7885905148 0.5283930533 0.5567062735 0.481594844 0.5078677855 0.6190182499 0.6396715466 0.5795843069 0.5976516544 0.4185867219 0.378563795 0.4432655807 0.3146411026 0.3302165483 0.2520908659 0.2119881243 0.2690949821 0.3916050206 0.402761464 0.3433733732 0.3543810626 0.5283930533 0.5438218343 0.461548853 0.4199958147 0.4741769185 0.6911691861 0.7063882608 0.6560862891 0.6685747434 0.7501952871 0.7611412073 0.7180023285 0.7261843774 0.611334989 0.6209242104 0.554579655 0.5609353238 0.6773541125 0.6825675333 0.6266073082 0.6284902545 0.6906886283 0.7699685464 0.6680779333 0.7497525634 0.8262301435 0.7322109071 0.5790111452 0.5561095328 0.6483301869 0.6317139384 0.8103457017 0.8842590472 0.7971139348 0.8721493744 0.9437293044 0.8626132172 0.7175397419 0.7059180636 0.7866687081 0.7791221021 0.4504554986 0.426193178 0.3745439936 0.5366453962 0.5210041387 0.3001057756 0.2828772371 0.2454120021 0.3608867659 0.3483919533 0.1893560479 0.176015469 0.2352717221 0.2253307031 0.08309944391 0.04823546575 0.1624887316 0.1487250504 0.2667531191 0.2519455546 0.2061612025 0.406322109 0.3915114941 0.3274099351 0.6184816337 0.6088539439 0.6974983199 0.6923973299 0.5095379341 0.5025326482 0.4491419771 0.6030035499 0.601040764 0.934923543 1.004384917 0.9285825892 0.9984851808 1.066023569 0.9949285464 0.8557366162 0.851584002 0.9247571472 0.9234784784 1.062692997 1.128484188 1.061580484 1.127436597 1.191637529 1.128484188 0.9937401729 0.9949285464 1.062692997 1.066023569 0.7745588462 0.7730317749 0.8501952901 0.851584002 0.6906886283 0.6923973299 0.7745588462 0.7791221021 0.9247571472 0.9285825892 0.9984851808 1.004384917 0.8557366162 0.8626132172 0.934923543 0.9437293044 0.1464713536 0.1604285034 0.04423558646 0.0771026862 0.2218612452 0.2306739023 0.1724103877 0.1828058225 0.1346517862 0.1201602121 0.1970020671 0.1881823521 0.09817052089 0.1141694704 0.1050773989 0.08910360893 0.2830066668 0.2455611797 0.2942648414 0.1918728369 0.1997923727 0.1270294242 0.1376331032 0.2517977355 0.2573101166 0.2066963683 0.2126837441 0.2386996838 0.2272887068 0.1717684329 0.3191862823 0.3126405934 0.2727759855 0.07164535324 0.05120615503 0.1642967078 0.1574097584 0.1464713536 0.1538487361 0.02016169984 0.03890593624 0.2223613727 0.2180009497 0.2692333045 0.2661988287 0.1511875194 0.1457151679 0.2142420552 0.2111168219 0.3634349473 0.3706782213 0.3031652679 0.3099111516 0.4262790954 0.4311027828 0.3762154781 0.38012128 0.222193873 0.1649677407 0.228744877 0.05602167201 0.06684140511 0.1410799931 0.1373667678 0.1689488123 0.1719815011 0.07417350595 0.07899515412 0.3146411026 0.3174452463 0.2325869293 0.1753832299 0.2338535867 0.3861936144 0.382349848 0.4458412431 0.4438490206 0.3078799101 0.3049878327 0.2617222481 0.3800249272 0.3792467864 0.5001757504 0.5025326482 0.4438490206 0.208653725 0.2068764162 0.2603075292 0.2594549952 0.1346517862 0.1329961965 0.2058026636 0.2054434989 0.3040176933 0.3049878327 0.2594549952 0.081751756 0.08265019472 0.1324397342 0.1329961965 0.175803818 0.1753832299 0.081751756 0.07899515412 0.2058026636 0.2068764162 0.2603075292 0.2617222481 0.1346517862 0.1373667678 0.208653725 0.2111168219 0.3800249272 0.382349848 0.4458412431 0.4491419771 0.3078799101 0.3126405934 0.2661988287 0.3861936144 0.3915114941 0.481594844 0.4840422244 0.3832172605 0.3174452463 0.38012128 0.5630379372 0.5609353238 0.481594844 0.4311027828 0.4741769185 0.2325869293 0.1719815011 0.228744877 0.07417350595 0.06684140511 0.1410799931 0.1457151679 0.1689488123 0.1649677407 0.05602167201 0.03890593624 0.3146411026 0.3099111516 0.222193873 0.1538487361 0.2126837441 0.2142420552 0.2180009497 0.2692333045 0.2727759855 0.1511875194 0.1574097584 0.2223613727 0.2272887068 0.3191862823 0.3274099351 0.02016169984 0.05120615503 0.1642967078 0.1717684329 0.1464713536 0.1376331032 0.07164535324 0.08910360893 0.2386996838 0.2519455546 0.1881823521 0.3762154781 0.3706782213 0.3031652679 0.2573101166 0.2942648414 0.4262790954 0.4199958147 0.3634349473 0.3543810626 0.2066963683 0.1997923727 0.1270294242 0.1141694704 0.2517977355 0.2455611797 0.1918728369 0.1828058225 0.1050773989 0.1201602121 0.1970020671 0.2061612025 0.09817052089 0.0771026862 0.1346517862 0.1487250504 0.2830066668 0.2306739023 0.2690949821 0.1724103877 0.1604285034 0.04423558646 0.04823546575 0.2218612452 0.2119881243 0.1464713536 0.1299038106 0.6030035499 0.6088539439 0.6974983199 0.7059180636 0.5095379341 0.5210041387 0.6184816337 0.6317139384 0.7866687081 0.7971139348 0.8721493744 0.8842590472 0.7175397419 0.7322109071 0.8103457017 0.8262301435 0.406322109 0.426193178 0.3483919533 0.5366453962 0.5561095328 0.2667531191 0.2828772371 0.2253307031 0.3608867659 0.3745439936 0.1624887316 0.176015469 0.2352717221 0.2454120021 0.08309944391 0.1085347187 0.1893560479 0.2025472553 0.3001057756 0.3182594264 0.4504554986 0.4784414802 0.404865429 0.6483301869 0.6680779333 0.7497525634 0.7699685464 0.5790111452 0.6049599677 0.6906886283 0.7158910532 0.8561245346 0.8738832159 0.8505857357 0.8657321685 0.8939357324 0.9083596135 0.8886326399 0.9005206827 0.8393985012 0.8519738112 0.8223323347 0.8323301253 0.877930361 0.8873019145 0.8616277292 0.8684576846 0.9251161245 0.9365411764 0.9199927819 0.9289400882 0.9503186143 0.9589830225 0.9453318696 0.9515612172 0.9096595345 0.9161314726 0.8939357324 0.8978924977 0.9352786182 0.9390612001 0.9199927819 0.9212762886 0.7990106187 0.8063711149 0.7688643208 0.7734611739 0.8393985012 0.8436110997 0.8107553384 0.8122114872 0.731049652 0.7326642307 0.6842965138 0.6825675333 0.7749873991 0.7734611739 0.731049652 0.7261843774 0.8725299959 0.8738832159 0.8450106323 0.8436110997 0.8992075504 0.8978924977 0.8725299959 0.8684576846 0.8107553384 0.8063711149 0.7688643208 0.7611412073 0.8393985012 0.8323301253 0.7990106187 0.7885905148 0.9700092622 0.9760811314 0.9651242634 0.9687903217 0.9845188387 0.9881129427 0.97970619 0.9809115658 0.9552793276 0.956515486 0.9403186794 0.9390612001 0.9700092622 0.9687903217 0.9552793276 0.9515612172 0.9940742396 0.9952622142 0.9893080758 0.9881129427 0.9988176604 0.9976339196 0.9940742396 0.9905017668 0.97970619 0.9760811314 0.9651242634 0.9589830225 0.9845188387 0.9784993293 0.9700092622 0.9614442262 0.9199927819 0.9161314726 0.8939357324 0.8873019145 0.9352786182 0.9289400882 0.9096595345 0.9005206827 0.8616277292 0.8519738112 0.8223323347 0.8092965696 0.877930361 0.8657321685 0.8393985012 0.8237680195 0.9453318696 0.9365411764 0.9199927819 0.9083596135 0.9503186143 0.9390612001 0.9251161245 0.9109576006 0.8886326399 0.8738832159 0.8505857357 0.8323301253 0.8939357324 0.8765833888 0.8561245346 0.8351646544 0.6266073082 0.6209242104 0.554579655 0.5438218343 0.6773541125 0.6685747434 0.611334989 0.5976516544 0.461548853 0.402761464 0.4432655807 0.3433733732 0.3302165483 0.2520908659 0.1883768559 0.2313133359 0.3916050206 0.378563795 0.3146411026 0.2663363636 0.2962658224 0.5283930533 0.5078677855 0.4185867219 0.3459446984 0.3862884285 0.7180023285 0.7063882608 0.6560862891 0.6396715466 0.7501952871 0.7358827607 0.6911691861 0.6721002529 0.5795843069 0.5567062735 0.481594844 0.4199958147 0.4485654216 0.6190182499 0.5936842069 0.5283930533 0.4937104415 0.1095478545 0.08265019472 0.1301901029 0.1497148983 0.1741153701 0.1576422349 0.03695898804 0.06629126074 0.2285847251 0.2542797733 0.1850160994 0.219182051 0.2056216755 0.1381686512 0.1141694704 0.2552930875 0.2431432753 0.1903269955 0.1728382101 0.1022273909 0.1296215947 0.2014504291 0.2173223502 0.081751756 0.006051536478 0.1531289859 0.174329071 0.3371888033 0.3567704532 0.4213132835 0.4384921785 0.279726778 0.3049878327 0.2478077711 0.3769027249 0.3975019654 0.2745290712 0.2147570848 0.2485504853 0.1524018319 0.1276094812 0.08309944391 0.1189246249 0.1979355117 0.1787202226 0.09511377849 0.03890593624 0.32571286 0.3021892774 0.2168105992 0.1287617561 0.1762234022 0.1939798284 0.2125114887 0.2625674207 0.2770740326 0.147227801 0.1717684329 0.2301944872 0.2472110055 0.3301056294 0.3551105682 0.07946506947 0.1201602121 0.1939798284 0.2145864937 0.09195548133 0.006051536478 0.1511875194 0.1776858622 0.